{"Chinese":"氢","Number":"1","EnglishName":"Hydrogen","ElementSymbol":"H","AtomicNumber":"1.00784","Number&Chinese":"1   氢","Period":"一","FamilyOrder":"IA","Summarize":"氢是一种化学元素，其化学符号为H，原子序数为1。氢的原子量为1.00794U，是元素周期表中最轻的元素。它的单原子形式（H）是宇宙中最丰富的化学物质，大约占所有重子质量的75%。","ExtranuclearElectronConfiguration":"1s¹","Electron":"1","Uron":"1","Neutron":"0","Electronegativity":"2.2","Density":"8.9×10⁻⁵","Valence":"+1","Area":"s区","MeltingPoint":"-259.14°C","BoilingPoint":"-252.87°C","AtomicRadius":"53pm","CovalentRadius":"38pm","Conductivity":"-","Magnetism":"抗磁性","PhysicalState":"气态","IonizationPotential":"13.53eV","Radioactivity":"-","HalfLifePeriod":"∞","Color":"1"}