{"EnglishName":"Neon","ElementSymbol":"Ne","AtomicNumber":"20.18","Number&Chinese":"10   氖","Period":"二","FamilyOrder":"0","Summarize":"氖（旧译作氝，讹作氞）是一种化学元素，它的化学符号是Ne，它的原子序数是10。在标准状态下是一种无色无味的惰性单原子气体[7]，其密度是空气的三分之二，其名称来自于希腊语Neos（νέος，新的）。","ExtranuclearElectronConfiguration":"1s²2s²2p⁶","Electron":"10","Uron":"10","Neutron":"10","Electronegativity":"-","Density":"9.0×10⁻⁴","Valence":"-","Area":"p区","MeltingPoint":"-248.67℃","BoilingPoint":"-246.05℃","AtomicRadius":"38pm","CovalentRadius":"69pm","Conductivity":"-","Magnetism":"抗磁性","PhysicalState":"气态","IonizationPotential":"21.47eV","Radioactivity":"无","HalfLifePeriod":"∞","Color":"2","Chinese":"氖","Number":"10"}