{
  "EnglishName": "Fermium",
  "ElementSymbol": "Fm",
  "AtomicNumber": "257.0",
  "Number&Chinese": "100   镄",
  "Period": "七",
  "FamilyOrder": "-",
  "ExtranuclearElectronConfiguration": "1s²2s²2p⁶3s²3p⁶3d¹⁰4s²4p⁶4d¹⁰4f¹⁴5s²5p⁶5d¹⁰5f¹²6s²6p⁶7s²",
  "Electron": "100",
  "Uron": "100",
  "Neutron": "157",
  "Electronegativity": "1.30",
  "Area": "f区",
  "MeltingPoint": "1527.0℃",
  "BoilingPoint": "-",
  "AtomicRadius": "290pm",
  "CovalentRadius": "-",
  "Conductivity": "-",
  "Magnetism": "-",
  "PhysicalState": "固态",
  "IonizationPotential": "-",
  "Radioactivity": "有",
  "HalfLifePeriod": "101天",
  "Chinese": "镄",
  "Number": "100"
}
