{
  "EnglishName": "Mendelevium",
  "ElementSymbol": "Md",
  "AtomicNumber": "258.0",
  "Number&Chinese": "101   钔",
  "Period": "七",
  "FamilyOrder": "-",
  "ExtranuclearElectronConfiguration": "1s²2s²2p⁶3s²3p⁶3d¹⁰4s²4p⁶4d¹⁰4f¹⁴5s²5p⁶5d¹⁰5f¹³6s²6p⁶7s²",
  "Electron": "101",
  "Uron": "101",
  "Neutron": "157",
  "Electronegativity": "1.3",
  "Area": "f区",
  "MeltingPoint": "827.0℃",
  "BoilingPoint": "-",
  "AtomicRadius": "287pm",
  "CovalentRadius": "-",
  "Conductivity": "-",
  "Magnetism": "-",
  "PhysicalState": "固态",
  "IonizationPotential": "-",
  "Radioactivity": "有",
  "HalfLifePeriod": "51.5天",
  "Chinese": "钔",
  "Number": "101"
}
