{
  "EnglishName": "Nobelium",
  "ElementSymbol": "No",
  "AtomicNumber": "259.1",
  "Number&Chinese": "102   锘",
  "Period": "七",
  "FamilyOrder": "-",
  "ExtranuclearElectronConfiguration": "1s²2s²2p⁶3s²3p⁶3d¹⁰4s²4p⁶4d¹⁰4f¹⁴5s²5p⁶5d¹⁰5f¹⁴6s²6p⁶6d¹⁰7s²",
  "Electron": "102",
  "Uron": "102",
  "Neutron": "157",
  "Electronegativity": "1.3",
  "Area": "f区",
  "MeltingPoint": "827.0℃",
  "BoilingPoint": "-",
  "AtomicRadius": "285pm",
  "CovalentRadius": "-",
  "Conductivity": "-",
  "Magnetism": "-",
  "PhysicalState": "-",
  "IonizationPotential": "-",
  "Radioactivity": "有",
  "HalfLifePeriod": "2.7小时",
  "Chinese": "锘",
  "Number": "102"
}
