{
  "EnglishName": "Lawrencium",
  "ElementSymbol": "Lr",
  "AtomicNumber": "262.0",
  "Number&Chinese": "103   铹",
  "Period": "七",
  "FamilyOrder": "-",
  "ExtranuclearElectronConfiguration": "1s²2s²2p⁶3s²3p⁶3d¹⁰4s²4p⁶4d¹⁰4f¹⁴5s²5p⁶5d¹⁰5f¹⁴6s²6p⁶6d¹⁰7s²7p⁶7d¹",
  "Electron": "103",
  "Uron": "103",
  "Neutron": "159",
  "Electronegativity": "-",
  "Area": "d区",
  "MeltingPoint": "1627.0℃",
  "BoilingPoint": "-",
  "AtomicRadius": "282pm",
  "CovalentRadius": "-",
  "Conductivity": "-",
  "Magnetism": "-",
  "PhysicalState": "固态",
  "IonizationPotential": "-",
  "Radioactivity": "有",
  "HalfLifePeriod": "10小时",
  "Chinese": "铹",
  "Number": "103"
}
