{
  "EnglishName": "Rutherfordium",
  "ElementSymbol": "Rf",
  "AtomicNumber": "261.1",
  "Number&Chinese": "104   𬬻",
  "Period": "七",
  "FamilyOrder": "IV B",
  "ExtranuclearElectronConfiguration": "1s²2s²2p⁶3s²3p⁶3d¹⁰4s²4p⁶4d¹⁰5s²5p⁶5d⁶6s²6p⁶4f¹⁴5f¹⁴6d²7s²",
  "Electron": "104",
  "Uron": "104",
  "Neutron": "163",
  "Electronegativity": "0",
  "Area": "d区",
  "MeltingPoint": "2100.0℃",
  "BoilingPoint": "5500.0℃",
  "AtomicRadius": "-",
  "CovalentRadius": "-",
  "Conductivity": "-",
  "Magnetism": "-",
  "PhysicalState": "固态",
  "IonizationPotential": "-",
  "Radioactivity": "有",
  "HalfLifePeriod": "80分钟",
  "Chinese": "𬬻",
  "Number": "104"
}
