{"EnglishName":"Sodium","ElementSymbol":"Na","AtomicNumber":"23.00","Number&Chinese":"11   钠","Period":"三","FamilyOrder":"I A","Summarize":"钠是一种化学元素，元素符号为Na，它原子序是11，相对原子量为23。它是柔软且活性大的银白色金属。钠是周期表的第一族元素，又称碱金属。因为它价壳层只有单个电子，所以容易失去电子形成带正电的阳离子Na+。钠唯一稳定的同位素为钠-23。钠的金属并不存在自然界中，须从化合物来制备。 在周期表中，它位于第1列（碱金属），与该列中的其他六个元素共享，它在外壳中具有单个电子，它很容易失去电子，产生带正电的原子 - 阳离子。","ExtranuclearElectronConfiguration":"1s²2s²2p⁶3s¹","Electron":"11","Uron":"11","Neutron":"12","Electronegativity":"0.93","Density":"0.971","Valence":"+1","Area":"s区","MeltingPoint":"97.8℃","BoilingPoint":"882.94℃","AtomicRadius":"190pm","CovalentRadius":"154pm","Conductivity":"导体","Magnetism":"顺磁性","PhysicalState":"固态","IonizationPotential":"5.12eV","Radioactivity":"无","HalfLifePeriod":"∞","Color":"3","Chinese":"钠","Number":"11"}