{
  "EnglishName": "Nihonium",
  "ElementSymbol": "Nh",
  "AtomicNumber": "286.1",
  "Number&Chinese": "113   鿭",
  "Period": "七",
  "FamilyOrder": "III A",
  "ExtranuclearElectronConfiguration": "1s²2s²2p⁶3s²3p⁶3d¹⁰4s²4p⁶4d¹⁰4f¹⁴5s²5p⁶5d¹⁰5f¹⁴6s²6p⁶6d¹⁰7s²7p¹",
  "Electron": "113",
  "Uron": "113",
  "Neutron": "173",
  "Electronegativity": "-",
  "Area": "p区",
  "MeltingPoint": "425.0℃",
  "BoilingPoint": "1155.0℃",
  "AtomicRadius": "170pm",
  "CovalentRadius": "-",
  "Conductivity": "-",
  "Magnetism": "-",
  "PhysicalState": "固态",
  "IonizationPotential": "-",
  "Radioactivity": "有",
  "HalfLifePeriod": "20分钟",
  "Chinese": "鿭",
  "Number": "113"
}
