{
  "EnglishName": "Flerovium",
  "ElementSymbol": "Fl",
  "AtomicNumber": "289.0",
  "Number&Chinese": "114   𫓧",
  "Period": "七",
  "FamilyOrder": "IV A",
  "ExtranuclearElectronConfiguration": "1s²2s²2p⁶3s²3p⁶3d¹⁰4s²4p⁶4d¹⁰4f¹⁴5s²5p⁶5d¹⁰5f¹⁴6s²6p⁶6d¹⁰7s²7p²",
  "Electron": "114",
  "Uron": "114",
  "Neutron": "175",
  "Electronegativity": "-",
  "Area": "p区",
  "MeltingPoint": "68.0℃",
  "BoilingPoint": "146.0℃",
  "AtomicRadius": "-",
  "CovalentRadius": "-",
  "Conductivity": "-",
  "Magnetism": "-",
  "PhysicalState": "-",
  "IonizationPotential": "-",
  "Radioactivity": "有",
  "HalfLifePeriod": "80秒",
  "Chinese": "𫓧",
  "Number": "114"
}
