{
  "EnglishName": "Oganesson",
  "ElementSymbol": "Og",
  "AtomicNumber": "294.2",
  "Number&Chinese": "118   鿫",
  "Period": "七",
  "FamilyOrder": "0",
  "ExtranuclearElectronConfiguration": "1s²2s²2p⁶3s²3p⁶3d¹⁰4s²4p⁶4d¹⁰4f¹⁴5s²5p⁶5d¹⁰5f¹⁴6s²6p⁶6d¹⁰7s²7p⁶",
  "Electron": "118",
  "Uron": "118",
  "Neutron": "176",
  "Electronegativity": "-",
  "Area": "p区",
  "MeltingPoint": "-",
  "BoilingPoint": "95.0℃",
  "AtomicRadius": "152pm",
  "CovalentRadius": "-",
  "Conductivity": "导体",
  "Magnetism": "-",
  "PhysicalState": "气态",
  "IonizationPotential": "-",
  "Radioactivity": "有",
  "HalfLifePeriod": "0.005秒",
  "Chinese": "鿫",
  "Number": "118"
}
