{"EnglishName":"Magnesium","ElementSymbol":"Mg","AtomicNumber":"24.3","Number&Chinese":"12   镁","Period":"三","FamilyOrder":"II A","Summarize":"镁是一种符号为Mg，原子序数为12的化学元素。它是一种闪亮的灰色固体，与周期表第二列（第2组，或碱土金属）中的其他五种元素具有密切的物理相似性：它们各自 在它们的外电子壳中具有相同的电子构型，产生类似的晶体结构。 镁是宇宙中第九丰富的元素。","ExtranuclearElectronConfiguration":"1s²2s²2p⁶3s²","Electron":"12","Uron":"12","Neutron":"12","Electronegativity":"1.31","Density":"1.738","Valence":"+2","Area":"s区","MeltingPoint":"650.0℃","BoilingPoint":"1090.0℃","AtomicRadius":"160pm","CovalentRadius":"130pm","Conductivity":"导体","Magnetism":"顺磁性","PhysicalState":"固态","IonizationPotential":"7.61eV","Radioactivity":"无","HalfLifePeriod":"∞","Color":"4","Chinese":"镁","Number":"12"}