{"EnglishName":"Aluminum","ElementSymbol":"Al","AtomicNumber":"27.00","Number&Chinese":"13   铝","Period":"三","FamilyOrder":"III A","Summarize":"铝（Aluminum）是化学元素，属于硼族元素，化学符号是Al，原子序数是13，相对密度是2.70。铝是较软的易延展的银白色金属，也是地壳中第三大丰度的元素（仅次于氧和硅），也是丰度最大的金属，在地球的固体表面中占约8%的质量。铝金属在化学上很活跃，因此除非在极其特殊的氧化还原环境下，一般很难找到游离态的金属铝。被发现的含铝的矿物超过270种。最主要的含铝矿石是铝土矿。","ExtranuclearElectronConfiguration":"1s²2s²2p⁶3s²3p¹","Electron":"13","Uron":"13","Neutron":"14","Electronegativity":"1.61","Density":"2.70","Valence":"+3","Area":"p区","MeltingPoint":"660.0℃","BoilingPoint":"2518.82℃","AtomicRadius":"143pm","CovalentRadius":"118pm","Conductivity":"导体","Magnetism":"顺磁性","PhysicalState":"固态","IonizationPotential":"5.95eV","Radioactivity":"无","HalfLifePeriod":"∞","Color":"7","Chinese":"铝","Number":"13"}