{"EnglishName":"Silicon","ElementSymbol":"Si","AtomicNumber":"28.09","Number&Chinese":"14   硅","Period":"三","FamilyOrder":"IV A","Summarize":"硅（英语：Silicon，元素符号：Si，原子序为14），又译矽，是一种化学元素。为带着灰蓝色金属光泽且坚硬易碎的晶体，亦是一种四价的类金属半导体。硅为周期表第十四族元素之一：碳在其排序之上，其下依序为锗、锡、铅[注 1]。由于它对于氧的高亲和力，直至在公元1823年才第一次被永斯·贝采利乌斯成功纯化。","ExtranuclearElectronConfiguration":"1s²2s²2p⁶3s²3p²","Electron":"14","Uron":"14","Neutron":"14","Electronegativity":"1.9","Density":"2.33","Valence":"+2,+4","Area":"p区","MeltingPoint":"1414.85℃","BoilingPoint":"3265.0℃","AtomicRadius":"132pm","CovalentRadius":"111pm","Conductivity":"半导体","Magnetism":"抗磁性","PhysicalState":"固态","IonizationPotential":"8.12eV","Radioactivity":"无","HalfLifePeriod":"∞","Color":"5","Chinese":"硅","Number":"14"}