{"EnglishName":"Phosphorus","ElementSymbol":"P","AtomicNumber":"30.97","Number&Chinese":"15   磷","Period":"三","FamilyOrder":"V A","Summarize":"磷是一种化学元素，符号为P，原子序数为15。作为一种元素，磷以两种主要形式存在 - 白磷和红磷 - 但由于其高反应性，磷在地球上从未被发现为自由元素。 相反，含磷矿物质几乎总是以其最大氧化状态存在，如无机磷酸盐岩石。","ExtranuclearElectronConfiguration":"1s²2s²2p⁶3s²3p³","Electron":"15","Uron":"15","Neutron":"16","Electronegativity":"2.19","Density":"2.82","Valence":"+3,+5","Area":"p区","MeltingPoint":"44.15℃","BoilingPoint":"280.5℃","AtomicRadius":"128pm","CovalentRadius":"106pm","Conductivity":"导体","Magnetism":"抗磁性","PhysicalState":"固态","IonizationPotential":"10.3eV","Radioactivity":"无","HalfLifePeriod":"∞","Color":"1","Chinese":"磷","Number":"15"}