{"EnglishName":"Sulfur","ElementSymbol":"S","AtomicNumber":"32.07","Number&Chinese":"16   硫","Period":"三","FamilyOrder":"VI A","Summarize":"硫是一种化学元素，在元素周期表中它的化学符号是S，原子序数是16。硫是一种非常常见的无味无臭的非金属，纯的硫是黄色的晶体，又称硫黄、硫磺。硫有许多不同的化合价，常见的有-2, 0, +4, +6等。在正常条件下，硫原子形成具有化学式S₈的环状八原子分子。","ExtranuclearElectronConfiguration":"1s²2s²2p⁶3s²3p⁴","Electron":"16","Uron":"16","Neutron":"16","Electronegativity":"2.58","Density":"2.07","Valence":"+2,+4,+6","Area":"p区","MeltingPoint":"112.8℃","BoilingPoint":"444.67℃","AtomicRadius":"127pm","CovalentRadius":"102pm","Conductivity":"绝缘体","Magnetism":"抗磁性","PhysicalState":"固态","IonizationPotential":"10.31eV","Radioactivity":"无","HalfLifePeriod":"∞","Color":"1","Chinese":"硫","Number":"16"}