{"EnglishName":"Chlorine","ElementSymbol":"Cl","AtomicNumber":"35.45","Number&Chinese":"17   氯","Period":"三","FamilyOrder":"VII A","Summarize":"氯(Chlorine)是一种卤族化学元素，化学符号为Cl，原子序数为17。第二轻的卤素，在周期表里出现在氟和溴之间、它的性质是在他们中间体之间。 氯在室温呈现是黄绿色气体，它在元素里是反应性极强的元素和强氧化剂，在所有元素中，氯拥有最高的电子亲和力并且是鲍林电负度中第三高阴电性的元素，仅次于氧和氟。汉弗里·戴维在1810年为它以本身颜色（古希腊文：χλωρός、罗马文：khlôros）“淡绿色”命名。","ExtranuclearElectronConfiguration":"1s²2s²2p⁶3s²3p⁵","Electron":"17","Uron":"17","Neutron":"18","Electronegativity":"3.16","Density":"3.21×10⁻³","Valence":"-1,+3,+5,+7","Area":"p区","MeltingPoint":"-100.98℃","BoilingPoint":"-34.6℃","AtomicRadius":"99pm","CovalentRadius":"99pm","Conductivity":"绝缘体","Magnetism":"抗磁性","PhysicalState":"气态","IonizationPotential":"12.96eV","Radioactivity":"无","HalfLifePeriod":"∞","Color":"6","Chinese":"氯","Number":"17"}