{"EnglishName":"Argon","ElementSymbol":"Ar","AtomicNumber":"39.95","Number&Chinese":"18   氩","Period":"三","FamilyOrder":"0","Summarize":"氩（Argon）元素的化学符号是Ar，原子序是18，位在周期表的第18族，是一种惰性气体。氩占大气体积的0.934%（9340 ppmv），是地球大气层第三多的气体，是水蒸气的两倍以上（平均4000 ppmv左右，但变化很大）、二氧化碳（400 ppmv）的23倍之多、氖（18 ppmv）的500倍以上argon这个名称源自于希腊语中的 ἀργόν，意思是“懒惰的”、“不活跃的”。","ExtranuclearElectronConfiguration":"1s²2s²2p⁶3s²3p⁶","Electron":"18","Uron":"18","Neutron":"22","Electronegativity":"-","Density":"1.78×10⁻³","Valence":"-","Area":"p区","MeltingPoint":"-189.34℃","BoilingPoint":"-185.85℃","AtomicRadius":"71pm","CovalentRadius":"97pm","Conductivity":"-","Magnetism":"抗磁性","PhysicalState":"气态","IonizationPotential":"15.68eV","Radioactivity":"无","HalfLifePeriod":"∞","Color":"2","Chinese":"氩","Number":"18"}