{"EnglishName":"Potassium","ElementSymbol":"K","AtomicNumber":"39.10","Number&Chinese":"19   钾","Period":"四","FamilyOrder":"I A","Summarize":"钾是原子序数为19的化学元素。钾最早于植物的灰烬中所分离出，故其名称源自植物的灰烬。在元素周期表中，钾属于碱金族，所有碱金族在外部电子壳中都具有单价电子在离子盐中发生。其易被去除电子而形成具有正电荷的离子──阳离子（阳离子可与阴离子结合形成盐）。","ExtranuclearElectronConfiguration":"1s²2s²2p⁶3s²3p⁶4s¹","Electron":"19","Uron":"19","Neutron":"20","Electronegativity":"0.82","Density":"0.856","Valence":"+1","Area":"s区","MeltingPoint":"63.38℃","BoilingPoint":"758.8℃","AtomicRadius":"235pm","CovalentRadius":"196pm","Conductivity":"导体","Magnetism":"-","PhysicalState":"固态","IonizationPotential":"4.32eV","Radioactivity":"无","HalfLifePeriod":"∞","Color":"3","Chinese":"钾","Number":"19"}