{"EnglishName":"Helium","ElementSymbol":"He","AtomicNumber":"4.0026","Number&Chinese":"2   氦","Period":"一","FamilyOrder":"0","Summarize":"氦（希腊语：ἥλιος，转写：Helios，直译：太阳；旧译作氜）简写为He，其原子序为2，原子量为4.002602。是一种无色，无臭，无味，的惰性单原子气体。同时，在元素周期表上，它也是稀有气体的第一个元素。沸点为所有元素中最低的。","ExtranuclearElectronConfiguration":"1s²","Electron":"2","Uron":"2","Neutron":"2","Electronegativity":"-","Density":"1.785×10⁻¹⁰","Valence":"0","Area":"s区","MeltingPoint":"-272.2℃","BoilingPoint":"-268.9℃","AtomicRadius":"31pm","CovalentRadius":"32pm","Conductivity":"-","Magnetism":"-","PhysicalState":"气态","IonizationPotential":"24.47eV","Radioactivity":"无","HalfLifePeriod":"∞","Color":"2","Chinese":"氦","Number":"2"}