{"EnglishName":"Calcium","ElementSymbol":"Ca","AtomicNumber":"40.08","Number&Chinese":"20   钙","Period":"四","FamilyOrder":"II A","Summarize":"钙是一种化学元素，符号为Ca，原子序数为20.钙是一种软灰色碱土金属，是地壳中质量第五丰富的元素。 在钠，氯，镁和硫酸盐之后，离子Ca2 +在海水中的摩尔浓度和质量也是第五丰富的溶解离子。","ExtranuclearElectronConfiguration":"1s²2s²2p⁶3s²3p⁶4s²","Electron":"20","Uron":"20","Neutron":"20","Electronegativity":"1","Density":"1.55","Valence":"+2","Area":"s区","MeltingPoint":"842.0℃","BoilingPoint":"1484.0℃","AtomicRadius":"197pm","CovalentRadius":"174pm","Conductivity":"导体","Magnetism":"顺磁性","PhysicalState":"固态","IonizationPotential":"6.09eV","Radioactivity":"无","HalfLifePeriod":"∞","Color":"4","Chinese":"钙","Number":"20"}