{"EnglishName":"Scandium","ElementSymbol":"Sc","AtomicNumber":"44.96","Number&Chinese":"21   钪","Period":"四","FamilyOrder":"III B","Summarize":"钪是一种化学元素，符号为 Sc，原子序数为 21.银白色金属过度元素，历史上被归类为稀土元素，与钇和镧系元素一起被分类。它是由频谱分析于1879年发现的矿物 黑稀金矿和硅铍钇来自斯堪的纳维亚半岛。1879年拉斯·弗雷德里克·尼尔森和他的团队把这新元素命名为“Scandium”，源自拉丁文“Scandia”（斯堪的纳维亚半岛）。","ExtranuclearElectronConfiguration":"1s²2s²2p⁶3s²3p⁶3d¹4s²","Electron":"21","Uron":"21","Neutron":"24","Electronegativity":"1.36","Density":"2.99","Valence":"+3","Area":"d区","MeltingPoint":"1541.0℃","BoilingPoint":"2836.0℃","AtomicRadius":"162pm","CovalentRadius":"144pm","Conductivity":"导体","Magnetism":"-","PhysicalState":"固态","IonizationPotential":"6.57eV","Radioactivity":"无","HalfLifePeriod":"∞","Color":"8","Chinese":"钪","Number":"21"}