{"EnglishName":"Titanium","ElementSymbol":"Ti","AtomicNumber":"47.87","Number&Chinese":"22   钛","Period":"四","FamilyOrder":"IV B","Summarize":"钛是化学元素，化学符号Ti，原子序数22，是银白色过渡金属，其特征为重量轻、强度高、具金属光泽，亦有良好的抗腐蚀能力（包括海水、王水及氯气）。由于其稳定的化学性质，良好的耐高温、耐低温、抗强酸、抗强碱，以及高强度、低密度，常用来制造火箭及太空船，因此获美誉为“太空金属”。钛于1791年由格雷戈尔于英国康沃尔郡发现，并由克拉普罗特用希腊神话的泰坦为其命名。","ExtranuclearElectronConfiguration":"1s²2s²2p⁶3s²3p⁶3d²4s²","Electron":"22","Uron":"22","Neutron":"26","Electronegativity":"1.54","Density":"4.54","Valence":"+2,+3,+5","Area":"d区","MeltingPoint":"1660.0℃","BoilingPoint":"3287.0℃","AtomicRadius":"147pm","CovalentRadius":"136pm","Conductivity":"导体","Magnetism":"顺磁性","PhysicalState":"固态","IonizationPotential":"6.84eV","Radioactivity":"无","HalfLifePeriod":"∞","Color":"8","Chinese":"钛","Number":"22"}