{"EnglishName":"Vanadium","ElementSymbol":"V","AtomicNumber":"50.94","Number&Chinese":"23   钒","Period":"四","FamilyOrder":"V B","Summarize":"钒是一种化学元素，符号为V，原子序数为23。它是一种坚硬、银灰色，具韧性、可延展的过渡金属。在自然界中很少发现元素金属，但是一旦经人工分离，会形成氧化层(钝化)防止自由态的金属氧化，使之更稳定存在。","ExtranuclearElectronConfiguration":"1s²2s²2p⁶3s²3p⁶3d³4s²","Electron":"23","Uron":"23","Neutron":"28","Electronegativity":"1.63","Density":"6.11","Valence":"+2,+3,+4,+5","Area":"d区","MeltingPoint":"1910.0℃","BoilingPoint":"3407.0℃","AtomicRadius":"134pm","CovalentRadius":"125pm","Conductivity":"导体","Magnetism":"-","PhysicalState":"固态","IonizationPotential":"6.84eV","Radioactivity":"无","HalfLifePeriod":"∞","Color":"8","Chinese":"钒","Number":"23"}