{"EnglishName":"Chromium","ElementSymbol":"Cr","AtomicNumber":"52.00","Number&Chinese":"24   铬","Period":"四","FamilyOrder":"VI B","Summarize":"铬（拉丁语：Chromium，化学符号：Cr）是一种化学元素，原子序为24，在第六族元素中排行首位。铬元素是一种银灰色，具金属光泽，且硬而脆的过渡金属。其命名源自于希腊语χρῶμα（拉丁化：chrōma），原意为“色彩或颜料”。","ExtranuclearElectronConfiguration":"1s²2s²2p⁶3s²3p⁶3d⁵4s¹","Electron":"24","Uron":"24","Neutron":"28","Electronegativity":"1.66","Density":"7.19","Valence":"+2,+3,+5","Area":"d区","MeltingPoint":"1907.0℃","BoilingPoint":"2672.0℃","AtomicRadius":"130pm","CovalentRadius":"127pm","Conductivity":"导体","Magnetism":"反铁磁性","PhysicalState":"固态","IonizationPotential":"6.74eV","Radioactivity":"无","HalfLifePeriod":"∞","Color":"8","Chinese":"铬","Number":"24"}