{"EnglishName":"Manganese","ElementSymbol":"Mn","AtomicNumber":"54.94","Number&Chinese":"25   锰","Period":"四","FamilyOrder":"VII B","Summarize":"锰是一种符号Mn和原子序数为25的化学元素。它在自然界中不是一种自由元素; 它通常与铁和许多矿物质结合使用。 锰是一种具有重要工业金属合金用途的金属，特别是在不锈钢中。","ExtranuclearElectronConfiguration":"1s²2s²2p⁶3s²3p⁶3d⁵4s²","Electron":"25","Uron":"25","Neutron":"30","Electronegativity":"1.55","Density":"7.21","Valence":"+1,+2,+3,+4,+5,+6,+7","Area":"d区","MeltingPoint":"1245.0℃","BoilingPoint":"2061.0℃","AtomicRadius":"127pm","CovalentRadius":"139pm","Conductivity":"导体","Magnetism":"顺磁性","PhysicalState":"固态","IonizationPotential":"7.40eV","Radioactivity":"无","HalfLifePeriod":"∞","Color":"8","Chinese":"锰","Number":"25"}