{"EnglishName":"Iron","ElementSymbol":"Fe","AtomicNumber":"55.85","Number&Chinese":"26   铁","Period":"四","FamilyOrder":"VIII","Summarize":"铁（Iron）是一个化学元素，化学符号是Fe (源自拉丁语 ferrum)，原子序数26，是一种金属，是第一列过渡元素，位在周期表的第8族。依质量计，是在地球上是占比最多的元素，为地球外核和内核的主要成分。它也是地壳中含量第四多的元素。","ExtranuclearElectronConfiguration":"1s²2s²2p⁶3s²3p⁶3d⁶4s²","Electron":"26","Uron":"26","Neutron":"30","Electronegativity":"1.83","Density":"7.88","Valence":"+2,+3,+6","Area":"d区","MeltingPoint":"1539.0℃","BoilingPoint":"2862.0℃","AtomicRadius":"126pm","CovalentRadius":"125pm","Conductivity":"导体","Magnetism":"铁磁性","PhysicalState":"固态","IonizationPotential":"7.83eV","Radioactivity":"无","HalfLifePeriod":"∞","Color":"8","Chinese":"铁","Number":"26"}