{"EnglishName":"Cobalt","ElementSymbol":"Co","AtomicNumber":"58.93","Number&Chinese":"27   钴","Period":"四","FamilyOrder":"VIII","Summarize":"钴是一种符号Co和原子序数为27的化学元素。与镍一样，地壳中的钴只能以化学结合的形式存在，除了在天然大气合金中发现的小矿床。 通过还原熔炼生产的自由元素是一种坚硬，有光泽的银灰色金属。","ExtranuclearElectronConfiguration":"1s²2s²2p⁶3s²3p⁶3d⁷4s²","Electron":"27","Uron":"27","Neutron":"32","Electronegativity":"1.88","Density":"8.9","Valence":"+2,+3","Area":"d区","MeltingPoint":"1493.0℃","BoilingPoint":"2870.0℃","AtomicRadius":"125pm","CovalentRadius":"126pm","Conductivity":"导体","Magnetism":"铁磁性","PhysicalState":"固态","IonizationPotential":"7.81eV","Radioactivity":"无","HalfLifePeriod":"∞","Color":"8","Chinese":"钴","Number":"27"}