{"EnglishName":"Nickel","ElementSymbol":"Ni","AtomicNumber":"58.69","Number&Chinese":"28   镍","Period":"四","FamilyOrder":"VIII","Summarize":"镍是一种化学元素，化学符号为Ni，原子序数为28。它是一种有光泽的银白色金属，其银白色带一点淡金色。镍属于过渡金属，质硬，具延展性。","ExtranuclearElectronConfiguration":"1s²2s²2p⁶3s²3p⁶3d⁸4s²","Electron":"28","Uron":"28","Neutron":"31","Electronegativity":"1.91","Density":"8.9","Valence":"+2,+3","Area":"d区","MeltingPoint":"1493.0℃","BoilingPoint":"2870.0℃","AtomicRadius":"124pm","CovalentRadius":"121pm","Conductivity":"导体","Magnetism":"铁磁性","PhysicalState":"固态","IonizationPotential":"7.61eV","Radioactivity":"无","HalfLifePeriod":"∞","Color":"8","Chinese":"镍","Number":"28"}