{"EnglishName":"Copper","ElementSymbol":"Cu","AtomicNumber":"63.55","Number&Chinese":"29   铜","Period":"四","FamilyOrder":"I B","Summarize":"铜是化学元素，化学符号为Cu（来自拉丁语：cuprum)，原子序29。纯铜是柔软的金属，表面刚切开时为红橙色带金属光泽、延展性好、导热性和导电性高。","ExtranuclearElectronConfiguration":"1s²2s²2p⁶3s²3p⁶3d¹⁰4s¹","Electron":"29","Uron":"29","Neutron":"35","Electronegativity":"1.9","Density":"8.92","Valence":"+1,+2","Area":"ds区","MeltingPoint":"1084.62℃","BoilingPoint":"2652.0℃","AtomicRadius":"128pm","CovalentRadius":"138pm","Conductivity":"导体","Magnetism":"抗磁性","PhysicalState":"固态","IonizationPotential":"7.69eV","Radioactivity":"无","HalfLifePeriod":"∞","Color":"8","Chinese":"铜","Number":"29"}