{"EnglishName":"Lithium","ElementSymbol":"Li","AtomicNumber":"6.941","Number&Chinese":"3   锂","Period":"二","FamilyOrder":"I A","Summarize":"锂是一种化学元素，其符号为Li，原子序数为3。它是一种软的银白色金属，属于碱金属元素。在标准条件下，它是最轻的金属和密度最小的固体元素。","ExtranuclearElectronConfiguration":"1s²2s¹","Electron":"3","Uron":"3","Neutron":"4","Electronegativity":"0.98","Density":"0.534","Valence":"+1","Area":"s区","MeltingPoint":"180.5℃","BoilingPoint":"1342.0℃","AtomicRadius":"145pm","CovalentRadius":"134pm","Conductivity":"导体","Magnetism":"顺磁性","PhysicalState":"固态","IonizationPotential":"5.37eV","Radioactivity":"无","HalfLifePeriod":"∞","Color":"3","Chinese":"锂","Number":"3"}