{"EnglishName":"Zinc","ElementSymbol":"Zn","AtomicNumber":"65.38","Number&Chinese":"30   锌","Period":"四","FamilyOrder":"II B","Summarize":"锌是一种化学元素，它的化学符号是Zn，它的原子序数是30，相对原子质量是65.39，是一种过渡金属；锌由于形、色类似铅，故也称为亚铅，古称倭铅。锌在常温下为硬脆物质，且带有蓝银色光泽。为元素周期表第十二族中的第一个元素。在某些方面，锌的化学性质与镁相似：两者皆呈现单一氧化态 (+2)，且Zn2+和Mg2+离子大小相似。","ExtranuclearElectronConfiguration":"1s²2s²2p⁶3s²3p⁶3d¹⁰4s²","Electron":"30","Uron":"30","Neutron":"35","Electronegativity":"1.65","Density":"7.133","Valence":"+2","Area":"ds区","MeltingPoint":"419.5℃","BoilingPoint":"906.0℃","AtomicRadius":"138pm","CovalentRadius":"131pm","Conductivity":"导体","Magnetism":"抗磁性","PhysicalState":"固态","IonizationPotential":"9.35eV","Radioactivity":"无","HalfLifePeriod":"∞","Color":"8","Chinese":"锌","Number":"30"}