{"EnglishName":"Gallium","ElementSymbol":"Ga","AtomicNumber":"69.72","Number&Chinese":"31   镓","Period":"四","FamilyOrder":"III A","Summarize":"镓（Gallium）是一种化学元素，化学符号“Ga”，原子序31，位于元素周期表的第13族，为一种贫金属，与铝、铟和铊具有相似的特性。在自然界中常以微量散存于锌矿、铝矾土矿等矿石中。在标准温度和压力下，镓元素是一种质地柔软的银色金属；而在低温下则为脆性固体。当温度高于29.76°C（85.57°F）则为液体，因此此金属会融化于人的手中。1875年，德布瓦博德兰检测在闪锌矿样品的原子光谱时发现了新元素镓，德布瓦博德兰以“高卢”（Gallia）为这个元素命名。","ExtranuclearElectronConfiguration":"1s²2s²2p⁶3s²3p⁶3d¹⁰4s²4p¹","Electron":"31","Uron":"31","Neutron":"39","Electronegativity":"1.81","Density":"5.91","Valence":"+3","Area":"p区","MeltingPoint":"29.8℃","BoilingPoint":"2203.0℃","AtomicRadius":"141pm","CovalentRadius":"126pm","Conductivity":"导电","Magnetism":"抗磁性","PhysicalState":"固态","IonizationPotential":"5.97eV","Radioactivity":"无","HalfLifePeriod":"∞","Color":"7","Chinese":"镓","Number":"31"}