{"EnglishName":"Germanium","ElementSymbol":"Ge","AtomicNumber":"69.72","Number&Chinese":"32   锗","Period":"四","FamilyOrder":"IV A","Summarize":"锗（旧译作鈤）是一种化学元素，它的化学符号是“Ge”，原子序数是32。它是一种灰白色类金属，有光泽，质硬，属于碳族，化学性质与同族的锡与硅相近。锗是一种重要的半导体材料，用于制造晶体管及各种电子装置。克莱门斯·温克勒于1886年在一种叫硫银锗矿的稀有矿物中，发现了一种新元素-锗。温克勒以他的国家——德国的拉丁语名来为这种元素命名。","ExtranuclearElectronConfiguration":"1s²2s²2p⁶3s²3p⁶3d¹⁰4s²4p²","Electron":"32","Uron":"32","Neutron":"41","Electronegativity":"2.01","Density":"5.323","Valence":"+3,+5","Area":"p区","MeltingPoint":"937.5℃","BoilingPoint":"2833.0℃","AtomicRadius":"122.5pm","CovalentRadius":"122pm","Conductivity":"半导体","Magnetism":"抗磁性","PhysicalState":"固态","IonizationPotential":"7.85eV","Radioactivity":"无","HalfLifePeriod":"∞","Color":"7","Chinese":"锗","Number":"32"}