{"EnglishName":"Arsenic","ElementSymbol":"As","AtomicNumber":"74.92","Number&Chinese":"33   砷","Period":"四","FamilyOrder":"V A","Summarize":"砷，化学元素符号为As，原子序数为33。砷分布在多种矿物中，通常与硫和其它金属元素共存，也有纯的元素晶体。艾尔伯图斯·麦格努斯在1250年首次对砷进行了记载。砷是一种非金属元素。单质以灰砷、黑砷和黄砷这三种同素异形体的形式存在，但只有灰砷在工业上具有重要的用途。砷是一种类金属。","ExtranuclearElectronConfiguration":"1s²2s²2p⁶3s²3p⁶3d¹⁰4s²4p³","Electron":"33","Uron":"33","Neutron":"42","Electronegativity":"2.18","Density":"5.72","Valence":"+3,+5","Area":"p区","MeltingPoint":"-","BoilingPoint":"613.0℃","AtomicRadius":"139pm","CovalentRadius":"119pm","Conductivity":"导体","Magnetism":"顺磁性","PhysicalState":"固态","IonizationPotential":"9.96eV","Radioactivity":"无","HalfLifePeriod":"∞","Color":"7","Chinese":"砷","Number":"33"}