{"EnglishName":"Selenium","ElementSymbol":"Se","AtomicNumber":"78.96","Number&Chinese":"34   硒","Period":"四","FamilyOrder":"VI A","Summarize":"硒元素的符号为Se，原子序数是34。它是一种非金属（偶而被认为是类金属），具有的性质介于元素周期表中上下两元素硫和碲之间，且与砷也有相似性。 它罕见以元素状态存在，亦甚少在地壳中以纯化合物的矿石存在。 Selenium（来自古希腊语σελήνη（selḗnē）“月神名”）于1817年由永斯·雅各布·贝吉里斯（Jöns Jacob Berzelius）发现，他注意到此新元素与先前发现的碲（以地球命名）具有相似性质。","ExtranuclearElectronConfiguration":"1s²2s²2p⁶3s²3p⁶3d¹⁰4s²4p⁴","Electron":"34","Uron":"34","Neutron":"45","Electronegativity":"2.55","Density":"4.79","Valence":"+2,+4,+6","Area":"p区","MeltingPoint":"217.0℃","BoilingPoint":"684.8℃","AtomicRadius":"140pm","CovalentRadius":"116pm","Conductivity":"-","Magnetism":"抗磁性","PhysicalState":"固态","IonizationPotential":"9.5eV","Radioactivity":"无","HalfLifePeriod":"∞","Color":"1","Chinese":"硒","Number":"34"}