{"EnglishName":"Bromine","ElementSymbol":"Br","AtomicNumber":"79.90","Number&Chinese":"35   溴","Period":"四","FamilyOrder":"VII A","Summarize":"溴，是一个化学元素及一种卤素；元素符号Br，原子序35。溴分子在标准温度和压力下是有挥发性的红棕色液体，活性介于氯与碘之间。纯溴也称溴素。溴蒸气具有腐蚀性，并且有毒。溴分别被两个科学家安东尼·巴拉尔和卡尔·罗威在1825年与1826年所发现。溴的名称Bromine来自希腊文bromos（βρῶμος，公山羊的恶臭）。","ExtranuclearElectronConfiguration":"1s²2s²2p⁶3s²3p⁶3d¹⁰4s²4p⁵","Electron":"35","Uron":"35","Neutron":"45","Electronegativity":"2.96","Density":"3.14","Valence":"-1,+1,+3,+5,+7","Area":"p区","MeltingPoint":"-7.25℃","BoilingPoint":"58.8℃","AtomicRadius":"115pm","CovalentRadius":"114pm","Conductivity":"绝缘体","Magnetism":"抗磁性","PhysicalState":"液态","IonizationPotential":"11.8eV","Radioactivity":"无","HalfLifePeriod":"∞","Color":"6","Chinese":"溴","Number":"35"}