{"EnglishName":"Krypton","ElementSymbol":"Kr","AtomicNumber":"83.80","Number&Chinese":"36   氪","Period":"四","FamilyOrder":"0","Summarize":"氪是一种化学元素，化学符号是Kr，原子序数是36，是一种无色、无臭、无味的惰性气体，把它放电时呈橙红色，在大气中含有痕量，可通过分馏从液态空气中分离，常用于制作荧光灯。氪正如其他惰性气体一样，不易与其他物质产生化学作用，已知的化合物有二氟化氪（KrF2）。(来源于古希腊语: κρυπτός, 罗马字母: kryptos the hidden one（意为隐藏）)。","ExtranuclearElectronConfiguration":"1s²2s²2p⁶3s²3p⁶3d¹⁰4s²4p⁶","Electron":"36","Uron":"36","Neutron":"48","Electronegativity":"3","Density":"3.79×10⁻³","Valence":"-","Area":"p区","MeltingPoint":"-157.37℃","BoilingPoint":"-153.4℃","AtomicRadius":"88pm","CovalentRadius":"110pm","Conductivity":"-","Magnetism":"抗磁性","PhysicalState":"气态","IonizationPotential":"13.94eV","Radioactivity":"无","HalfLifePeriod":"∞","Color":"2","Chinese":"氪","Number":"36"}