{"EnglishName":"Rubidium","ElementSymbol":"Rb","AtomicNumber":"85.47","Number&Chinese":"37   铷","Period":"五","FamilyOrder":"I A","Summarize":"铷是一种化学元素，符号为Rb，原子序数为37。铷是种质软、呈银白色的金属，属于碱金属，原子量为85.4678。单质铷的反应性极高，其性质与其他碱金属相似，例如会在空气中快速氧化。1861年，罗伯特·威廉·本生和古斯塔夫·基尔霍夫在德国海德堡，利用光谱仪在锂云母中发现了铷元素。由于其发射光谱呈现出多条鲜明的红线，所以他们选择了拉丁文中意为“深红色”的“rubidus”一词为它命名。","ExtranuclearElectronConfiguration":"1s²2s²2p⁶3s²3p⁶3d¹⁰4s²4p⁶5s¹","Electron":"37","Uron":"37","Neutron":"48","Electronegativity":"0.82","Density":"1.53","Valence":"+1","Area":"s区","MeltingPoint":"39.32℃","BoilingPoint":"687.2℃","AtomicRadius":"248pm","CovalentRadius":"211pm","Conductivity":"导体","Magnetism":"-","PhysicalState":"固态","IonizationPotential":"4.16eV","Radioactivity":"无","HalfLifePeriod":"∞","Color":"3","Chinese":"铷","Number":"37"}