{"EnglishName":"Strontium","ElementSymbol":"Sr","AtomicNumber":"87.62","Number&Chinese":"38   锶","Period":"五","FamilyOrder":"II A","Summarize":"锶（Strontium，旧译作鎴）是一种化学元素，它的化学符号是Sr，它的原子序数是38，属于周期表的2A族，是一种银白色有光泽的碱土金属。锶是碱土金属中丰度最小的元素。在自然界主要以化合态存在，主要的矿石有天青石（SrSO4），菱锶矿（SrCO3）。锶的名字来源于苏格兰的一个村庄Strontian，发现于此处开采出的铅矿石中。","ExtranuclearElectronConfiguration":"1s²2s²2p⁶3s²3p⁶3d¹⁰4s²4p⁶5s²","Electron":"38","Uron":"38","Neutron":"50","Electronegativity":"0.95","Density":"2.57","Valence":"+2","Area":"s区","MeltingPoint":"777.0℃","BoilingPoint":"1382.0℃","AtomicRadius":"215pm","CovalentRadius":"192pm","Conductivity":"导体","Magnetism":"顺磁性","PhysicalState":"固态","IonizationPotential":"5.67eV","Radioactivity":"无","HalfLifePeriod":"∞","Color":"4","Chinese":"锶","Number":"38"}