{"EnglishName":"Yttrium","ElementSymbol":"Y","AtomicNumber":"88.91","Number&Chinese":"39   钇","Period":"五","FamilyOrder":"III B","Summarize":"钇（Yttrium）是化学元素，符号为Y，原子序为39，是银白色过渡金属，化学性质与镧系元素相近，且常归为稀土金属。钇在自然中并不单独出现，而是和镧系元素结合出现在稀土矿中。","ExtranuclearElectronConfiguration":"1s²2s²2p⁶3s²3p⁶3d¹⁰4s²4p⁶4d¹5s²","Electron":"39","Uron":"39","Neutron":"50","Electronegativity":"1.22","Density":"4.47","Valence":"+3","Area":"s区","MeltingPoint":"1526.0℃","BoilingPoint":"3338.0℃","AtomicRadius":"178pm","CovalentRadius":"162pm","Conductivity":"导体","Magnetism":"-","PhysicalState":"固态","IonizationPotential":"6.5eV","Radioactivity":"无","HalfLifePeriod":"∞","Color":"8","Chinese":"钇","Number":"39"}