{"EnglishName":"Beryllium","ElementSymbol":"Be","AtomicNumber":"9.0121","Number&Chinese":"4   铍","Period":"二","FamilyOrder":"II A","Summarize":"铍（旧译作鋍、鑉、鋊）是一种化学元素，符号为Be，原子序为4，属于碱土金属。铍通常在宇宙射线散裂过程中产生，是宇宙中较为稀有的元素之一。所有自然界中的铍都与其他元素结合，形成矿物，如绿柱石（海蓝宝石、祖母绿）和金绿宝石等，单质铍呈钢灰色，轻、硬而易碎。","ExtranuclearElectronConfiguration":"1s²2s²","Electron":"4","Uron":"4","Neutron":"5","Electronegativity":"1.57","Density":"1.848","Valence":"+2","Area":"s区","MeltingPoint":"1278.0℃","BoilingPoint":"2970.0℃","AtomicRadius":"112pm","CovalentRadius":"90pm","Conductivity":"导体","Magnetism":"抗磁性","PhysicalState":"固态","IonizationPotential":"9.50eV","Radioactivity":"无","HalfLifePeriod":"∞","Color":"4","Chinese":"铍","Number":"4"}