{"EnglishName":"Zirconium","ElementSymbol":"Zr","AtomicNumber":"91.22","Number&Chinese":"40   锆","Period":"五","FamilyOrder":"IV B","Summarize":"锆为一元素符号为Zr的化学元素，原子序数40。锆的原文名称zirconium来自锆石（德语：Zirkon），为锆元素的主要来源。锆石的字源来自波斯语：زرگون‎（zargun），字面意思为“似金”。这是一种灰白色、坚硬且带有光泽的过渡金属，与铪极为相似，与钛的相似性稍低。","ExtranuclearElectronConfiguration":"1s²2s²2p⁶3s²3p⁶3d¹⁰4s²4p⁶4d²5s²","Electron":"40","Uron":"40","Neutron":"51","Electronegativity":"1.33","Density":"6.51","Valence":"+2,+3,+4","Area":"s区","MeltingPoint":"1855.0℃","BoilingPoint":"4409.0℃","AtomicRadius":"160pm","CovalentRadius":"148pm","Conductivity":"导体","Magnetism":"顺磁性","PhysicalState":"固态","IonizationPotential":"6eV","Radioactivity":"无","HalfLifePeriod":"∞","Color":"8","Chinese":"锆","Number":"40"}