{"EnglishName":"Niobium","ElementSymbol":"Nb","AtomicNumber":"92.91","Number&Chinese":"41   铌","Period":"五","FamilyOrder":"V B","Summarize":"铌（IUPAC名：niobium，化学符号：Nb）是原子序为41的化学元素，曾有旧称钶（Columbium，化学符号：Cb），原在美洲使用，1949年IUPAC决定采欧洲使用的名称。铌是一种质软的灰色可延展过渡金属，一般出现在烧绿石和铌铁矿中。其命名来自希腊神话中的尼俄伯（Niobe，泪水女神），即坦塔洛斯之女。","ExtranuclearElectronConfiguration":"1s¹2s²2p⁶3s²3p⁶3d¹⁰4s²4p⁶4d⁴5s¹","Electron":"41","Uron":"41","Neutron":"52","Electronegativity":"1.6","Density":"8.58","Valence":"+2,+3,+4,+5","Area":"d区","MeltingPoint":"2477.0℃","BoilingPoint":"4927.0℃","AtomicRadius":"146pm","CovalentRadius":"137pm","Conductivity":"导体","Magnetism":"-","PhysicalState":"固态","IonizationPotential":"-","Radioactivity":"无","HalfLifePeriod":"∞","Color":"8","Chinese":"铌","Number":"41"}