{"EnglishName":"Molybdenum","ElementSymbol":"Mo","AtomicNumber":"95.94","Number&Chinese":"42   钼","Period":"五","FamilyOrder":"VI B","Summarize":"钼（Molybdenum）是一种化学元素，它的化学符号是Mo，它的原子序数是42，是一种灰色的过渡金属。因为一开始钼矿石与铅矿石被混淆了，因此Molybdenum之名来自新拉丁语 molybdaenum，后者来自古希腊语 Μόλυβδος molybdos，意思是铅。钼矿石在历史上被人们所熟知，但该元素的发现(即从其它金属中区分出来)是在1778年，由 卡尔·威廉·舍勒识别出来。该金属在1781年第一次被彼得·雅各·耶尔姆分离得出。","ExtranuclearElectronConfiguration":"1s¹2s²2p⁶3s²3p⁶3d¹⁰4s²4p⁶4d⁵5s¹","Electron":"42","Uron":"42","Neutron":"54","Electronegativity":"2.16","Density":"10.22","Valence":"+4,+6","Area":"d区","MeltingPoint":"2623.0℃","BoilingPoint":"4639.0℃","AtomicRadius":"139pm","CovalentRadius":"145pm","Conductivity":"导体","Magnetism":"顺磁性","PhysicalState":"固态","IonizationPotential":"-","Radioactivity":"无","HalfLifePeriod":"∞","Color":"8","Chinese":"钼","Number":"42"}