{"EnglishName":"Technetium","ElementSymbol":"Tc","AtomicNumber":"98.91","Number&Chinese":"43   锝","Period":"五","FamilyOrder":"VII B","Summarize":"锝是一种化学元素，其原子序数是43，化学符号是Tc。其所有同位素都具有放射性，是原子序最小的非稳定元素。在锝发现以前，德米特里·门捷列夫就已经预测了它的许多性质。在他的周期表中，门捷列夫把这种尚未发现的元素叫做“类锰”，符号为Em。1937年，锝（准确的说是锝-97）成为第一个大部分由人工制造的元素。它的英文名来自希腊语τεχνητός，意为“人造”。","ExtranuclearElectronConfiguration":"1s²2s²2p⁶3s²3p⁶3d¹⁰4s²4p⁶4d⁵5s²","Electron":"43","Uron":"43","Neutron":"55","Electronegativity":"1.9","Density":"11.49","Valence":"+1,+2,+3,+4,+5,+6,+7","Area":"d区","MeltingPoint":"2157.0℃","BoilingPoint":"4265.0℃","AtomicRadius":"136pm","CovalentRadius":"156pm","Conductivity":"","Magnetism":"导体","PhysicalState":"-","IonizationPotential":"-","Radioactivity":"有","HalfLifePeriod":"4300000年","Color":"8","Chinese":"锝","Number":"43"}