{"EnglishName":"Ruthenium","ElementSymbol":"Ru","AtomicNumber":"101","Number&Chinese":"44   钌","Period":"五","FamilyOrder":"VIII","Summarize":"","ExtranuclearElectronConfiguration":"1s²2s²2p⁶3s²3p⁶3d¹⁰4s²4p⁶4d⁷5s¹","Electron":"44","Uron":"44","Neutron":"57","Electronegativity":"2.2","Density":"","Valence":"","Area":"d区","MeltingPoint":"2334.0℃","BoilingPoint":"4077.0℃","AtomicRadius":"134pm","CovalentRadius":"126pm","Conductivity":"导体","Magnetism":"顺磁性","PhysicalState":"固态","IonizationPotential":"7.5eV","Radioactivity":"无","HalfLifePeriod":"∞","Color":"","Chinese":"钌","Number":"44"}