{"EnglishName":"Rhodium","ElementSymbol":"Rh","AtomicNumber":"102.9","Number&Chinese":"45   铑","Period":"五","FamilyOrder":"VIII","Summarize":"","ExtranuclearElectronConfiguration":"1s²2s²2p⁶3s²3p⁶3d¹⁰4s²4p⁶4d⁸5s¹","Electron":"45","Uron":"45","Neutron":"57","Electronegativity":"2.28","Density":"","Valence":"","Area":"d区","MeltingPoint":"1964.0℃","BoilingPoint":"3727.0℃","AtomicRadius":"134pm","CovalentRadius":"135pm","Conductivity":"导体","Magnetism":"顺磁性","PhysicalState":"固态","IonizationPotential":"7.7eV","Radioactivity":"无","HalfLifePeriod":"∞","Color":"","Chinese":"铑","Number":"45"}