{"EnglishName":"Palladium","ElementSymbol":"Pd","AtomicNumber":"106.4","Number&Chinese":"46   钯","Period":"五","FamilyOrder":"VIII","Summarize":"","ExtranuclearElectronConfiguration":"1s²2s²2p⁶3s²3p⁶3d¹⁰4s²4p⁶4d¹⁰","Electron":"46","Uron":"46","Neutron":"60","Electronegativity":"2.2","Density":"","Valence":"","Area":"d区","MeltingPoint":"1555.0℃","BoilingPoint":"2963.0℃","AtomicRadius":"137pm","CovalentRadius":"131pm","Conductivity":"导体","Magnetism":"顺磁性","PhysicalState":"固态","IonizationPotential":"8.3eV","Radioactivity":"无","HalfLifePeriod":"∞","Color":"","Chinese":"钯","Number":"46"}