{"EnglishName":"Silver","ElementSymbol":"Ag","AtomicNumber":"107.9","Number&Chinese":"47   银","Period":"五","FamilyOrder":"I B","Summarize":"","ExtranuclearElectronConfiguration":"1s²2s²2p⁶3s²3p⁶3d¹⁰4s²4p⁶4d¹⁰5s¹","Electron":"47","Uron":"47","Neutron":"61","Electronegativity":"1.93","Density":"","Valence":"","Area":"d区","MeltingPoint":"961.8℃","BoilingPoint":"2162.0℃","AtomicRadius":"144pm","CovalentRadius":"153pm","Conductivity":"导体","Magnetism":"抗磁性","PhysicalState":"固态","IonizationPotential":"7.54eV","Radioactivity":"无","HalfLifePeriod":"∞","Color":"","Chinese":"银","Number":"47"}