{"EnglishName":"Cadmium","ElementSymbol":"Cd","AtomicNumber":"112.4","Number&Chinese":"48   镉","Period":"五","FamilyOrder":"II B","Summarize":"","ExtranuclearElectronConfiguration":"1s²2s²2p⁶3s²3p⁶3d¹⁰4s²4p⁶4d¹⁰5s²","Electron":"48","Uron":"48","Neutron":"64","Electronegativity":"8.95","Density":"","Valence":"","Area":"d区","MeltingPoint":"319.1℃","BoilingPoint":"766.8℃","AtomicRadius":"154pm","CovalentRadius":"148pm","Conductivity":"导体","Magnetism":"抗磁性","PhysicalState":"固态","IonizationPotential":"7.54eV","Radioactivity":"无","HalfLifePeriod":"∞","Color":"","Chinese":"镉","Number":"48"}