{"EnglishName":"Indium","ElementSymbol":"In","AtomicNumber":"114.8","Number&Chinese":"49   铟","Period":"五","FamilyOrder":"III A","Summarize":"","ExtranuclearElectronConfiguration":"1s²2s²2p⁶3s²3p⁶3d¹⁰4s²4p⁶4d¹⁰5s²5p¹","Electron":"49","Uron":"49","Neutron":"66","Electronegativity":"1.78","Density":"","Valence":"","Area":"p区","MeltingPoint":"156.6℃","BoilingPoint":"2072.0℃","AtomicRadius":"166pm","CovalentRadius":"144pm","Conductivity":"导体","Magnetism":"抗磁性","PhysicalState":"固态","IonizationPotential":"8.95eV","Radioactivity":"无","HalfLifePeriod":"∞","Color":"","Chinese":"铟","Number":"49"}