{"EnglishName":"Borum","ElementSymbol":"B","AtomicNumber":"10.811","Number&Chinese":"5   硼","Period":"二","FamilyOrder":"III A","Summarize":"硼是一种化学元素，化学符号为B，原子序为5。由于硼的产生完全来自于宇宙射线散裂以及超新星而非恒星核合成，所以硼在太阳系与地壳[9]中含量很低。地球上最常见硼的天然化合物，是以水溶性的硼酸盐形式聚集在一起。工业上可直接开采硼盐酸的蒸发岩，例如硼砂和斜方硼砂。已知土耳其有最大的硼蕴含量，是最大的生产地。","ExtranuclearElectronConfiguration":"1s²2s²2p¹","Electron":"5","Uron":"5","Neutron":"6","Electronegativity":"2.04","Density":"2.34","Valence":"+3","Area":"p区","MeltingPoint":"2075.8℃","BoilingPoint":"3926.8℃","AtomicRadius":"98pm","CovalentRadius":"82pm","Conductivity":"绝缘体","Magnetism":"抗磁性","PhysicalState":"固态","IonizationPotential":"8.33eV","Radioactivity":"无","HalfLifePeriod":"∞","Color":"5","Chinese":"硼","Number":"5"}