{"EnglishName":"Tin","ElementSymbol":"Sn","AtomicNumber":"118.7","Number&Chinese":"50   锡","Period":"五","FamilyOrder":"IV A","Summarize":"","ExtranuclearElectronConfiguration":"1s²2s²2p⁶3s²3p⁶3d¹⁰4s²4p⁶4d¹⁰5s²5p²","Electron":"50","Uron":"50","Neutron":"69","Electronegativity":"1.96","Density":"","Valence":"","Area":"p区","MeltingPoint":"231.93℃","BoilingPoint":"2602.0℃","AtomicRadius":"162pm","CovalentRadius":"141pm","Conductivity":"导体","Magnetism":"顺磁性","PhysicalState":"固态","IonizationPotential":"7.37eV","Radioactivity":"无","HalfLifePeriod":"∞","Color":"","Chinese":"锡","Number":"50"}