{"EnglishName":"Antimony","ElementSymbol":"Sb","AtomicNumber":"121.8","Number&Chinese":"51   锑","Period":"五","FamilyOrder":"V A","Summarize":"","ExtranuclearElectronConfiguration":"1s²2s²2p⁶3s²3p⁶3d¹⁰4s²4p⁶4d¹⁰5s²5p³","Electron":"51","Uron":"51","Neutron":"71","Electronegativity":"2.05","Density":"","Valence":"","Area":"p区","MeltingPoint":"630.75℃","BoilingPoint":"1587.0℃","AtomicRadius":"159pm","CovalentRadius":"138pm","Conductivity":"导体","Magnetism":"抗磁性","PhysicalState":"固态","IonizationPotential":"8.35eV","Radioactivity":"无","HalfLifePeriod":"∞","Color":"","Chinese":"锑","Number":"51"}