{"EnglishName":"Tellurium","ElementSymbol":"Te","AtomicNumber":"127.6","Number&Chinese":"52   碲","Period":"五","FamilyOrder":"VI A","Summarize":"","ExtranuclearElectronConfiguration":"1s²2s²2p⁶3s²3p⁶3d¹⁰4s²4p⁶4d¹⁰5s²5p⁴","Electron":"52","Uron":"52","Neutron":"75","Electronegativity":"2.1","Density":"","Valence":"","Area":"p区","MeltingPoint":"449.55℃","BoilingPoint":"987.8℃","AtomicRadius":"160pm","CovalentRadius":"135pm","Conductivity":"导体","Magnetism":"抗磁性","PhysicalState":"固态","IonizationPotential":"-","Radioactivity":"无","HalfLifePeriod":"∞","Color":"","Chinese":"碲","Number":"52"}