{"EnglishName":"Iodine","ElementSymbol":"I","AtomicNumber":"126.9","Number&Chinese":"53   碘","Period":"五","FamilyOrder":"VII A","Summarize":"","ExtranuclearElectronConfiguration":"1s²2s²2p⁶3s²3p⁶3d¹⁰4s²4p⁶4d¹⁰5s²5p⁵","Electron":"53","Uron":"53","Neutron":"74","Electronegativity":"2.66","Density":"","Valence":"","Area":"p区","MeltingPoint":"133.55℃","BoilingPoint":"184.35℃","AtomicRadius":"136pm","CovalentRadius":"133pm","Conductivity":"绝缘体","Magnetism":"-","PhysicalState":"固态","IonizationPotential":"-","Radioactivity":"无","HalfLifePeriod":"∞","Color":"","Chinese":"碘","Number":"53"}