{"EnglishName":"Xenon","ElementSymbol":"Xe","AtomicNumber":"131.3","Number&Chinese":"54   氙","Period":"五","FamilyOrder":"VIII A","Summarize":"","ExtranuclearElectronConfiguration":"1s²2s²2p⁶3s²3p⁶3d¹⁰4s²4p⁶4d¹⁰5s²5p⁶","Electron":"54","Uron":"54","Neutron":"77","Electronegativity":"2.6","Density":"","Valence":"","Area":"p区","MeltingPoint":"-111.8℃","BoilingPoint":"-108.1℃","AtomicRadius":"108pm","CovalentRadius":"130pm","Conductivity":"-","Magnetism":"抗磁性","PhysicalState":"气态","IonizationPotential":"12.08eV","Radioactivity":"无","HalfLifePeriod":"∞","Color":"","Chinese":"氙","Number":"54"}