{"EnglishName":"Caesium","ElementSymbol":"Cs","AtomicNumber":"132.9","Number&Chinese":"55   铯","Period":"六","FamilyOrder":"I A","Summarize":"","ExtranuclearElectronConfiguration":"1s²2s²2p⁶3s²3p⁶3d¹⁰4s²4p⁶4d⁸5s²5p⁶6s¹","Electron":"55","Uron":"55","Neutron":"78","Electronegativity":"0.79","Density":"","Valence":"","Area":"s区","MeltingPoint":"28.45℃","BoilingPoint":"670.8℃","AtomicRadius":"267pm","CovalentRadius":"225pm","Conductivity":"导体","Magnetism":"-","PhysicalState":"固态","IonizationPotential":"3.88eV","Radioactivity":"无","HalfLifePeriod":"∞","Color":"","Chinese":"铯","Number":"55"}