{"EnglishName":"Barium","ElementSymbol":"Ba","AtomicNumber":"137.3","Number&Chinese":"56   钡","Period":"六","FamilyOrder":"II A","Summarize":"","ExtranuclearElectronConfiguration":"1s²2s²2p⁶3s²3p⁶3d¹⁰4s²4p⁶4d¹⁰5s²5p⁶6s²","Electron":"56","Uron":"56","Neutron":"81","Electronegativity":"0.89","Density":"","Valence":"","Area":"s区","MeltingPoint":"727.0℃","BoilingPoint":"1897.0℃","AtomicRadius":"222pm","CovalentRadius":"198pm","Conductivity":"导体","Magnetism":"顺磁性","PhysicalState":"固态","IonizationPotential":"5.19eV","Radioactivity":"无","HalfLifePeriod":"∞","Color":"","Chinese":"钡","Number":"56"}