{"EnglishName":"Lanthanum","ElementSymbol":"La","AtomicNumber":"138.9","Number&Chinese":"57   镧","Period":"六","FamilyOrder":"III B","Summarize":"","ExtranuclearElectronConfiguration":"1s²2s²2p⁶3s²3p⁶3d¹⁰4s²4p⁶4d¹⁰5s²5p⁶5d¹6s²","Electron":"57","Uron":"57","Neutron":"82","Electronegativity":"1.1","Density":"","Valence":"","Area":"f区","MeltingPoint":"920.0℃","BoilingPoint":"3464.0℃","AtomicRadius":"187pm","CovalentRadius":"169pm","Conductivity":"导体","Magnetism":"-","PhysicalState":"固态","IonizationPotential":"5.5eV","Radioactivity":"无","HalfLifePeriod":"∞","Color":"","Chinese":"镧","Number":"57"}