{"EnglishName":"Cerium","ElementSymbol":"Ce","AtomicNumber":"140.1","Number&Chinese":"58   铈","Period":"六","FamilyOrder":"-","Summarize":"","ExtranuclearElectronConfiguration":"1s²2s²2p⁶3s²3p⁶3d¹⁰4s²4p⁶4d¹⁰4f¹5s²5p⁶5d¹6s²","Electron":"58","Uron":"58","Neutron":"82","Electronegativity":"1.12","Density":"","Valence":"","Area":"f区","MeltingPoint":"795.0℃","BoilingPoint":"3443.0℃","AtomicRadius":"181pm","CovalentRadius":"-","Conductivity":"导体","Magnetism":"顺磁性","PhysicalState":"固态","IonizationPotential":"6.91eV","Radioactivity":"无","HalfLifePeriod":"∞","Color":"","Chinese":"铈","Number":"58"}