{"EnglishName":"Praseodymium","ElementSymbol":"Pr","AtomicNumber":"140.9","Number&Chinese":"59   镨","Period":"六","FamilyOrder":"-","Summarize":"","ExtranuclearElectronConfiguration":"1s²2s²2p⁶3s²3p⁶3d¹⁰4s²4p⁶4d¹⁰4f³5s²5p⁶6s²","Electron":"59","Uron":"59","Neutron":"82","Electronegativity":"1.13","Density":"","Valence":"","Area":"f区","MeltingPoint":"931.0℃","BoilingPoint":"3512.0℃","AtomicRadius":"182pm","CovalentRadius":"-","Conductivity":"绝缘体","Magnetism":"-","PhysicalState":"固态","IonizationPotential":"5.76eV","Radioactivity":"无","HalfLifePeriod":"∞","Color":"","Chinese":"镨","Number":"59"}