{"EnglishName":"Carbon","ElementSymbol":"C","AtomicNumber":"12.011","Number&Chinese":"6   碳","Period":"二","FamilyOrder":"IV A","Summarize":"碳（Carbon，拉丁文意为煤炭）是一种化学元素，符号为C，原子序数为6，位于元素周期表中的IV A族，属于非金属。每个碳原子有四颗能够进行键合的电子，因此其化合价通常为4。自然产生的碳由三种同位素组成：碳-12和碳-13为稳定同位素，而碳-14则具放射性，其半衰期约为5,730年。碳是少数几个自远古就被发现的元素之一。","ExtranuclearElectronConfiguration":"1s²2s²2p²","Electron":"6","Uron":"6","Neutron":"6","Electronegativity":"2.55","Density":"2.26","Valence":"+2,+4","Area":"p区","MeltingPoint":"3550.0℃","BoilingPoint":"4827.0℃","AtomicRadius":"77pm","CovalentRadius":"77pm","Conductivity":"导体","Magnetism":"抗磁性","PhysicalState":"固态","IonizationPotential":"11.22eV","Radioactivity":"无","HalfLifePeriod":"∞","Color":"1","Chinese":"碳","Number":"6"}