{"EnglishName":"Neodymium","ElementSymbol":"Nd","AtomicNumber":"144.2","Number&Chinese":"60   钕","Period":"六","FamilyOrder":"-","Summarize":"","ExtranuclearElectronConfiguration":"1s²2s²2p⁶3s²3p⁶3d¹⁰4s²4p⁶4d¹⁰4f⁴5s²5p⁶6s²","Electron":"60","Uron":"60","Neutron":"84","Electronegativity":"1.14","Density":"","Valence":"","Area":"f区","MeltingPoint":"1010.0℃","BoilingPoint":"3074.0℃","AtomicRadius":"182pm","CovalentRadius":"-","Conductivity":"导体","Magnetism":"顺磁性","PhysicalState":"固态","IonizationPotential":"6.31eV","Radioactivity":"无","HalfLifePeriod":"∞","Color":"","Chinese":"钕","Number":"60"}