{"EnglishName":"Promethium","ElementSymbol":"Pm","AtomicNumber":"144.9","Number&Chinese":"61   钷","Period":"六","FamilyOrder":"-","Summarize":"","ExtranuclearElectronConfiguration":"1s²2s²2p⁶3s²3p⁶3d¹⁰4s²4p⁶4d¹⁰4f⁵5s²5p⁶6s²","Electron":"61","Uron":"61","Neutron":"84","Electronegativity":"-","Density":"","Valence":"","Area":"f区","MeltingPoint":"1167.0℃","BoilingPoint":"3000.0℃","AtomicRadius":"183pm","CovalentRadius":"-","Conductivity":"导体","Magnetism":"-","PhysicalState":"固态","IonizationPotential":"-","Radioactivity":"有","HalfLifePeriod":"18年","Color":"","Chinese":"镨","Number":"61"}