{"EnglishName":"Samarium","ElementSymbol":"Sm","AtomicNumber":"150.3","Number&Chinese":"62   钐","Period":"六","FamilyOrder":"-","Summarize":"","ExtranuclearElectronConfiguration":"1s²2s²2p⁶3s²3p⁶3d¹⁰4s²4p⁶4d¹⁰4f⁶5s²5p⁶6s²","Electron":"62","Uron":"62","Neutron":"88","Electronegativity":"1.1","Density":"","Valence":"","Area":"f区","MeltingPoint":"1072.0℃","BoilingPoint":"1794.0℃","AtomicRadius":"181pm","CovalentRadius":"166pm","Conductivity":"导体","Magnetism":"顺磁性","PhysicalState":"固态","IonizationPotential":"6.55eV","Radioactivity":"无","HalfLifePeriod":"∞","Color":"","Chinese":"钐","Number":"62"}