{"EnglishName":"Europium","ElementSymbol":"Eu","AtomicNumber":"151.9","Number&Chinese":"63   铕","Period":"六","FamilyOrder":"-","Summarize":"","ExtranuclearElectronConfiguration":"1s²2s²2p⁶3s²3p⁶3d¹⁰4s²4p⁶4d¹⁰4f⁷5s²5p⁶6s²","Electron":"63","Uron":"63","Neutron":"89","Electronegativity":"-","Density":"","Valence":"","Area":"f区","MeltingPoint":"822.0℃","BoilingPoint":"1597.0℃","AtomicRadius":"199pm","CovalentRadius":"-","Conductivity":"导体","Magnetism":"顺磁性","PhysicalState":"固态","IonizationPotential":"-","Radioactivity":"无","HalfLifePeriod":"∞","Color":"","Chinese":"铕","Number":"63"}