{"EnglishName":"Gadolinium","ElementSymbol":"Gd","AtomicNumber":"157.2","Number&Chinese":"64   钆","Period":"六","FamilyOrder":"-","Summarize":"","ExtranuclearElectronConfiguration":"1s²2s²2p⁶3s²3p⁶3d¹⁰4s²4p⁶4d¹⁰4f⁷5s²5p⁶5d¹6s²","Electron":"64","Uron":"64","Neutron":"93","Electronegativity":"1.2","Density":"","Valence":"","Area":"f区","MeltingPoint":"1311.0℃","BoilingPoint":"3272.0℃","AtomicRadius":"179pm","CovalentRadius":"-","Conductivity":"导体","Magnetism":"铁磁性","PhysicalState":"固态","IonizationPotential":"6.65eV","Radioactivity":"无","HalfLifePeriod":"∞","Color":"","Chinese":"钆","Number":"64"}