{"EnglishName":"Terbium","ElementSymbol":"Tb","AtomicNumber":"158.9","Number&Chinese":"65   铽","Period":"六","FamilyOrder":"-","Summarize":"","ExtranuclearElectronConfiguration":"1s²2s²2p⁶3s²3p⁶3d¹⁰4s²4p⁶4d¹⁰4f⁹5s²5p⁶6s²","Electron":"65","Uron":"65","Neutron":"94","Electronegativity":"-","Density":"","Valence":"","Area":"f区","MeltingPoint":"1360.0℃","BoilingPoint":"3227.0℃","AtomicRadius":"180pm","CovalentRadius":"-","Conductivity":"导体","Magnetism":"顺磁性","PhysicalState":"固态","IonizationPotential":"6.74eV","Radioactivity":"无","HalfLifePeriod":"∞","Color":"","Chinese":"铽","Number":"65"}