{"EnglishName":"Dysprosium","ElementSymbol":"Dy","AtomicNumber":"162.5","Number&Chinese":"66   镝","Period":"六","FamilyOrder":"-","Summarize":"","ExtranuclearElectronConfiguration":"1s²2s²2p⁶3s²3p⁶3d¹⁰4s²4p⁶4d¹⁰4f¹⁰5s²5p⁶6s²","Electron":"66","Uron":"66","Neutron":"96","Electronegativity":"1.22","Density":"","Valence":"","Area":"f区","MeltingPoint":"1409.0℃","BoilingPoint":"2567.0℃","AtomicRadius":"180pm","CovalentRadius":"-","Conductivity":"导体","Magnetism":"顺磁性","PhysicalState":"固态","IonizationPotential":"6.82eV","Radioactivity":"无","HalfLifePeriod":"∞","Color":"","Chinese":"镝","Number":"66"}