{"EnglishName":"Holmium","ElementSymbol":"Ho","AtomicNumber":"164.9","Number&Chinese":"67   钬","Period":"六","FamilyOrder":"-","Summarize":"","ExtranuclearElectronConfiguration":"1s²2s²2p⁶3s²3p⁶3d¹⁰4s²4p⁶4d¹⁰4f¹¹5s²5p⁶6s²","Electron":"67","Uron":"67","Neutron":"98","Electronegativity":"1.23","Density":"","Valence":"","Area":"f区","MeltingPoint":"1470.0℃","BoilingPoint":"2695.0℃","AtomicRadius":"179pm","CovalentRadius":"-","Conductivity":"导体","Magnetism":"顺磁性","PhysicalState":"固态","IonizationPotential":"-","Radioactivity":"无","HalfLifePeriod":"∞","Color":"","Chinese":"钬","Number":"67"}