{"EnglishName":"Erbium","ElementSymbol":"Er","AtomicNumber":"167.2","Number&Chinese":"68   铒","Period":"六","FamilyOrder":"-","Summarize":"","ExtranuclearElectronConfiguration":"1s²2s²2p⁶3s²3p⁶3d¹⁰4s²4p⁶4d¹⁰4f¹²5s²5p⁶6s²","Electron":"68","Uron":"68","Neutron":"99","Electronegativity":"1.24","Density":"","Valence":"","Area":"f区","MeltingPoint":"1529.0℃","BoilingPoint":"2867.0℃","AtomicRadius":"178pm","CovalentRadius":"-","Conductivity":"导体","Magnetism":"顺磁性","PhysicalState":"固态","IonizationPotential":"-","Radioactivity":"无","HalfLifePeriod":"∞","Color":"","Chinese":"铒","Number":"68"}