{"EnglishName":"Thulium","ElementSymbol":"Tm","AtomicNumber":"168.9","Number&Chinese":"69   铥","Period":"六","FamilyOrder":"-","Summarize":"","ExtranuclearElectronConfiguration":"1s²2s²2p⁶3s²3p⁶3d¹⁰4s²4p⁶4d¹⁰4f¹³5s²5p⁶6s²","Electron":"69","Uron":"69","Neutron":"100","Electronegativity":"1.25","Density":"","Valence":"","Area":"f区","MeltingPoint":"1545.0℃","BoilingPoint":"1947.0℃","AtomicRadius":"177pm","CovalentRadius":"-","Conductivity":"导体","Magnetism":"顺磁性","PhysicalState":"固态","IonizationPotential":"-","Radioactivity":"无","HalfLifePeriod":"∞","Color":"","Chinese":"铥","Number":"69"}