{"EnglishName":"Nitrogenium","ElementSymbol":"N","AtomicNumber":"14.01","Number&Chinese":"7   氮","Period":"二","FamilyOrder":"V A","Summarize":"氮是一种化学元素，符号为N，原子序数为7。它是最轻的氮族元素，在室温下，它是一种透明，无味的双原子气体。 氮是宇宙中的常见元素，估计银河系和太阳系的总丰度约为七分之一。","ExtranuclearElectronConfiguration":"1s²2s²2p³","Electron":"7","Uron":"7","Neutron":"7","Electronegativity":"3.04","Density":"1.3×10⁻³","Valence":"+1,+2,+3,+4","Area":"p区","MeltingPoint":"-209.9℃","BoilingPoint":"-195.8℃","AtomicRadius":"92pm","CovalentRadius":"75pm","Conductivity":"-","Magnetism":"抗磁性","PhysicalState":"气态","IonizationPotential":"14.48eV","Radioactivity":"无","HalfLifePeriod":"∞","Color":"1","Chinese":"氮","Number":"7"}