{"EnglishName":"Ytterbium","ElementSymbol":"Yb","AtomicNumber":"173.0","Number&Chinese":"70   镱","Period":"六","FamilyOrder":"-","Summarize":"","ExtranuclearElectronConfiguration":"1s²2s²2p⁶3s²3p⁶3d¹⁰4s²4p⁶4d¹⁰4f¹⁴5s²5p⁶6s²","Electron":"70","Uron":"70","Neutron":"103","Electronegativity":"-","Density":"","Valence":"","Area":"f区","MeltingPoint":"824.0℃","BoilingPoint":"1193.0℃","AtomicRadius":"176pm","CovalentRadius":"-","Conductivity":"导体","Magnetism":"-","PhysicalState":"固态","IonizationPotential":"7.06eV","Radioactivity":"无","HalfLifePeriod":"∞","Color":"","Chinese":"镱","Number":"70"}