{"EnglishName":"Lutetium","ElementSymbol":"Lu","AtomicNumber":"174.9","Number&Chinese":"71   镥","Period":"六","FamilyOrder":"-","Summarize":"","ExtranuclearElectronConfiguration":"1s²2s²2p⁶3s²3p⁶3d¹⁰4s²4p⁶4d¹⁰4f¹⁴5s²5p⁶5d¹6s²","Electron":"71","Uron":"71","Neutron":"104","Electronegativity":"1.27","Density":"","Valence":"","Area":"f区","MeltingPoint":"1663.0℃","BoilingPoint":"3395.0℃","AtomicRadius":"175pm","CovalentRadius":"160pm","Conductivity":"导体","Magnetism":"-","PhysicalState":"固态","IonizationPotential":"-","Radioactivity":"无","HalfLifePeriod":"∞","Color":"","Chinese":"镥","Number":"71"}