{"EnglishName":"Hafnium","ElementSymbol":"Hf","AtomicNumber":"178.4","Number&Chinese":"72   铪","Period":"六","FamilyOrder":"IV B","Summarize":"","ExtranuclearElectronConfiguration":"1s²2s²2p⁶3s²3p⁶3d¹⁰4s²4p⁶4d¹⁰4f¹⁴5s²5p⁶5d²6s²","Electron":"72","Uron":"72","Neutron":"106","Electronegativity":"1.3","Density":"","Valence":"","Area":"d区","MeltingPoint":"2233.0℃","BoilingPoint":"4602.0℃","AtomicRadius":"167pm","CovalentRadius":"150pm","Conductivity":"导体","Magnetism":"-","PhysicalState":"固态","IonizationPotential":"-","Radioactivity":"无","HalfLifePeriod":"∞","Color":"","Chinese":"铪","Number":"72"}