{"EnglishName":"Tantalum","ElementSymbol":"Ta","AtomicNumber":"180.9","Number&Chinese":"73   钽","Period":"六","FamilyOrder":"V B","Summarize":"","ExtranuclearElectronConfiguration":"1s²2s²2p⁶3s²3p⁶3d¹⁰4s²4p⁶4d¹⁰4f¹⁴5s²5p⁶5d³6s²","Electron":"73","Uron":"73","Neutron":"108","Electronegativity":"1.5","Density":"","Valence":"","Area":"d区","MeltingPoint":"3017.0℃","BoilingPoint":"5458.0℃","AtomicRadius":"149pm","CovalentRadius":"138pm","Conductivity":"导体","Magnetism":"-","PhysicalState":"固态","IonizationPotential":"-","Radioactivity":"无","HalfLifePeriod":"∞","Color":"","Chinese":"钽","Number":"73"}