{"EnglishName":"Tungsten","ElementSymbol":"W","AtomicNumber":"183.8","Number&Chinese":"74   钨","Period":"六","FamilyOrder":"VI B","Summarize":"","ExtranuclearElectronConfiguration":"1s²2s²2p⁶3s²3p⁶3d¹⁰4s²4p⁶4d¹⁰4f¹⁴5s²5p⁶5d⁴6s²","Electron":"74","Uron":"74","Neutron":"110","Electronegativity":"2.36","Density":"","Valence":"","Area":"d区","MeltingPoint":"3422.0℃","BoilingPoint":"5555.0℃","AtomicRadius":"141pm","CovalentRadius":"146pm","Conductivity":"导体","Magnetism":"顺磁性","PhysicalState":"固态","IonizationPotential":"-","Radioactivity":"无","HalfLifePeriod":"∞","Color":"","Chinese":"钨","Number":"74"}