{"EnglishName":"Rhenium","ElementSymbol":"Re","AtomicNumber":"186.2","Number&Chinese":"75   铼","Period":"六","FamilyOrder":"VII B","Summarize":"","ExtranuclearElectronConfiguration":"1s²2s²2p⁶3s²3p⁶3d¹⁰4s²4p⁶4d¹⁰4f¹⁴5s²5p⁶5d⁵6s²","Electron":"75","Uron":"75","Neutron":"111","Electronegativity":"1.9","Density":"","Valence":"","Area":"d区","MeltingPoint":"3180.0℃","BoilingPoint":"5627.0℃","AtomicRadius":"137pm","CovalentRadius":"159pm","Conductivity":"导体","Magnetism":"-","PhysicalState":"固态","IonizationPotential":"-","Radioactivity":"无","HalfLifePeriod":"∞","Color":"","Chinese":"铼","Number":"75"}