{"EnglishName":"Osmium","ElementSymbol":"Os","AtomicNumber":"190.2","Number&Chinese":"76   锇","Period":"六","FamilyOrder":"VIII","Summarize":"","ExtranuclearElectronConfiguration":"1s²2s²2p⁶3s²3p⁶3d¹⁰4s²4p⁶4d¹⁰4f¹⁴5s²5p⁶5d⁶6s²","Electron":"76","Uron":"76","Neutron":"114","Electronegativity":"2.2","Density":"","Valence":"","Area":"d区","MeltingPoint":"3033.0℃","BoilingPoint":"5597.0℃","AtomicRadius":"135pm","CovalentRadius":"128pm","Conductivity":"导体","Magnetism":"顺磁性","PhysicalState":"固态","IonizationPotential":"-","Radioactivity":"无","HalfLifePeriod":"∞","Color":"","Chinese":"锇","Number":"76"}