{"EnglishName":"Iridium","ElementSymbol":"Ir","AtomicNumber":"192.2","Number&Chinese":"77   铱","Period":"六","FamilyOrder":"VIII","Summarize":"","ExtranuclearElectronConfiguration":"1s²2s²2p⁶3s²3p⁶3d¹⁰4s²4p⁶4d¹⁰4f¹⁴5s²5p⁶5d⁷6s²","Electron":"77","Uron":"77","Neutron":"115","Electronegativity":"2.2","Density":"","Valence":"","Area":"d区","MeltingPoint":"2410.0℃","BoilingPoint":"4130.0℃","AtomicRadius":"136pm","CovalentRadius":"137pm","Conductivity":"导体","Magnetism":"顺磁性","PhysicalState":"固态","IonizationPotential":"-","Radioactivity":"无","HalfLifePeriod":"∞","Color":"","Chinese":"铱","Number":"77"}