{"EnglishName":"Platinum","ElementSymbol":"Pt","AtomicNumber":"195.0","Number&Chinese":"78   铂","Period":"六","FamilyOrder":"VIII","Summarize":"","ExtranuclearElectronConfiguration":"1s²2s²2p⁶3s²3p⁶3d¹⁰4s²4p⁶4d¹⁰4f¹⁴5s²5p⁶5d⁹6s¹","Electron":"78","Uron":"78","Neutron":"117","Electronegativity":"2.28","Density":"","Valence":"","Area":"d区","MeltingPoint":"1768.0℃","BoilingPoint":"3825.0℃","AtomicRadius":"139pm","CovalentRadius":"128pm","Conductivity":"导体","Magnetism":"顺磁性","PhysicalState":"固态","IonizationPotential":"8.9eV","Radioactivity":"无","HalfLifePeriod":"∞","Color":"","Chinese":"铂","Number":"78"}