{"EnglishName":"Gold","ElementSymbol":"Au","AtomicNumber":"196.9","Number&Chinese":"79   金","Period":"六","FamilyOrder":"I B","Summarize":"","ExtranuclearElectronConfiguration":"1s²2s²2p⁶3s²3p⁶3d¹⁰4s²4p⁶4d¹⁰4f¹⁴5s²5p⁶5d¹⁰6s¹","Electron":"79","Uron":"79","Neutron":"118","Electronegativity":"2.54","Density":"","Valence":"","Area":"d区","MeltingPoint":"1064.63℃","BoilingPoint":"2700.0℃","AtomicRadius":"144pm","CovalentRadius":"144pm","Conductivity":"导体","Magnetism":"抗磁性","PhysicalState":"固态","IonizationPotential":"9.19eV","Radioactivity":"无","HalfLifePeriod":"∞","Color":"","Chinese":"金","Number":"79"}