{"EnglishName":"Oxygen","ElementSymbol":"O","AtomicNumber":"16.00","Number&Chinese":"8   氧","Period":"二","FamilyOrder":"VI A","Summarize":"氧是一种化学元素，符号为O，原子序为8，在元素周期表中属于氧族。氧属于非金属，是具有高反应性的氧化剂，能够与大部分元素以及其他化合物形成氧化物。氧在宇宙中的总质量在所有元素中位列第三，仅居氢和氦之下。在标准温度和压力下，两个氧原子会自然键合，形成无色无味的氧气，即双原子氧，氧气是地球大气层的主要成分之一，在体积上占20.8%。地球地壳中近一半的质量都是由氧和氧化物所组成。","ExtranuclearElectronConfiguration":"1s²2s²2p⁴","Electron":"8","Uron":"8","Neutron":"8","Electronegativity":"3.44","Density":"2.26","Valence":"-1,-2","Area":"p区","MeltingPoint":"-218.79℃","BoilingPoint":"-182.96℃","AtomicRadius":"48pm","CovalentRadius":"66pm","Conductivity":"-","Magnetism":"顺磁性","PhysicalState":"气态","IonizationPotential":"13.56eV","Radioactivity":"无","HalfLifePeriod":"∞","Color":"1","Chinese":"氧","Number":"8"}