{"EnglishName":"Mercury","ElementSymbol":"Hg","AtomicNumber":"200.59","Number&Chinese":"80   汞","Period":"六","FamilyOrder":"II B","Summarize":"","ExtranuclearElectronConfiguration":"1s²2s²2p⁶3s²3p⁶3d¹⁰4s²4p⁶4d¹⁰4f¹⁴5s²5p⁶5d¹⁰6s²","Electron":"80","Uron":"80","Neutron":"120","Electronegativity":"2","Density":"","Valence":"","Area":"d区","MeltingPoint":"-38.89℃","BoilingPoint":"356.7℃","AtomicRadius":"157pm","CovalentRadius":"149pm","Conductivity":"导体","Magnetism":"抗磁性","PhysicalState":"液态","IonizationPotential":"10.39eV","Radioactivity":"无","HalfLifePeriod":"∞","Color":"","Chinese":"汞","Number":"80"}