{"EnglishName":"Thallium","ElementSymbol":"Tl","AtomicNumber":"204.38","Number&Chinese":"81   铊","Period":"六","FamilyOrder":"III A","Summarize":"","ExtranuclearElectronConfiguration":"1s²2s²2p⁶3s²3p⁶3d¹⁰4s²4p⁶4d¹⁰4f¹⁴5s²5p⁶5d¹⁰6s²6p¹","Electron":"81","Uron":"81","Neutron":"123","Electronegativity":"1.62","Density":"","Valence":"","Area":"p区","MeltingPoint":"303.6℃","BoilingPoint":"1473.0℃","AtomicRadius":"171pm","CovalentRadius":"148pm","Conductivity":"导体","Magnetism":"抗磁性","PhysicalState":"固态","IonizationPotential":"6.08eV","Radioactivity":"无","HalfLifePeriod":"∞","Color":"","Chinese":"铊","Number":"81"}