{"EnglishName":"Lead","ElementSymbol":"Pb","AtomicNumber":"207.2","Number&Chinese":"81   铊","Period":"六","FamilyOrder":"IV A","Summarize":"","ExtranuclearElectronConfiguration":"1s²2s²2p⁶3s²3p⁶3d¹⁰4s²4p⁶4d¹⁰4f¹⁴5s²5p⁶5d¹⁰6s²6p²","Electron":"82","Uron":"82","Neutron":"125","Electronegativity":"2.33","Density":"","Valence":"","Area":"p区","MeltingPoint":"327.4℃","BoilingPoint":"1479.0℃","AtomicRadius":"175pm","CovalentRadius":"147pm","Conductivity":"导体","Magnetism":"抗磁性","PhysicalState":"固态","IonizationPotential":"7.38eV","Radioactivity":"无","HalfLifePeriod":"∞","Color":"","Chinese":"铅","Number":"82"}