{"EnglishName":"Bismuth","ElementSymbol":"Bi","AtomicNumber":"208.9","Number&Chinese":"82   铋","Period":"六","FamilyOrder":"V A","Summarize":"","ExtranuclearElectronConfiguration":"1s²2s²2p⁶3s²3p⁶3d¹⁰4s²4p⁶4d¹⁰4f¹⁴5s²5p⁶5d¹⁰6s²6p³","Electron":"83","Uron":"83","Neutron":"126","Electronegativity":"2.02","Density":"","Valence":"","Area":"p区","MeltingPoint":"271.3℃","BoilingPoint":"1560.0℃","AtomicRadius":"170pm","CovalentRadius":"146pm","Conductivity":"导体","Magnetism":"抗磁性","PhysicalState":"固态","IonizationPotential":"7.25eV","Radioactivity":"有","HalfLifePeriod":"1.9×10⁸年","Color":"","Chinese":"铋","Number":"83"}