{"EnglishName":"Polonium","ElementSymbol":"Po","AtomicNumber":"208.9","Number&Chinese":"84   钋","Period":"六","FamilyOrder":"VI A","Summarize":"","ExtranuclearElectronConfiguration":"1s²2s²2p⁶3s²3p⁶3d¹⁰4s²4p⁶4d¹⁰4f¹⁴5s²5p⁶5d¹⁰6s²6p⁴","Electron":"84","Uron":"84","Neutron":"125","Electronegativity":"2","Density":"","Valence":"","Area":"p区","MeltingPoint":"254.0℃","BoilingPoint":"962.0℃","AtomicRadius":"176pm","CovalentRadius":"146pm","Conductivity":"-","Magnetism":"-","PhysicalState":"固态","IonizationPotential":"-","Radioactivity":"有","HalfLifePeriod":"125年","Color":"","Chinese":"钋","Number":"84"}