{"EnglishName":"Astatine","ElementSymbol":"At","AtomicNumber":"209.9","Number&Chinese":"85   砹","Period":"六","FamilyOrder":"VII A","Summarize":"","ExtranuclearElectronConfiguration":"1s²2s²2p⁶3s²3p⁶3d¹⁰4s²4p⁶4d¹⁰4f¹⁴5s²5p⁶5d¹⁰6s²6p⁵","Electron":"85","Uron":"85","Neutron":"125","Electronegativity":"2.2","Density":"","Valence":"","Area":"p区","MeltingPoint":"230.0℃","BoilingPoint":"336.8℃","AtomicRadius":"145pm","CovalentRadius":"-","Conductivity":"-","Magnetism":"-","PhysicalState":"固态","IonizationPotential":"-","Radioactivity":"有","HalfLifePeriod":"8.2小时","Color":"","Chinese":"砹","Number":"85"}