{"EnglishName":"Radon","ElementSymbol":"Rn","AtomicNumber":"220.0","Number&Chinese":"86   氡","Period":"六","FamilyOrder":"0","Summarize":"","ExtranuclearElectronConfiguration":"1s²2s²2p⁶3s²3p⁶3d¹⁰4s²4p⁶4d¹⁰4f¹⁴5s²5p⁶5d¹⁰6s²6p⁶","Electron":"86","Uron":"86","Neutron":"136","Electronegativity":"-","Density":"","Valence":"","Area":"p区","MeltingPoint":"-71.15℃","BoilingPoint":"-61.7℃","AtomicRadius":"214pm","CovalentRadius":"145pm","Conductivity":"-","Magnetism":"-","PhysicalState":"气态","IonizationPotential":"-","Radioactivity":"有","HalfLifePeriod":"3.8小时","Color":"","Chinese":"氡","Number":"86"}