{"EnglishName":"Francium","ElementSymbol":"Fr","AtomicNumber":"223.0","Number&Chinese":"87   钫","Period":"七","FamilyOrder":"I A","Summarize":"","ExtranuclearElectronConfiguration":"1s²2s²2p⁶3s²3p⁶3d¹⁰4s²4p⁶4d¹⁰4f¹⁴5s²5p⁶5d¹⁰6s²6p⁶7s¹","Electron":"87","Uron":"87","Neutron":"136","Electronegativity":"0.7","Density":"","Valence":"","Area":"s区","MeltingPoint":"8.0℃","BoilingPoint":"676.8℃","AtomicRadius":"290pm","CovalentRadius":"-","Conductivity":"-","Magnetism":"-","PhysicalState":"固态","IonizationPotential":"-","Radioactivity":"有","HalfLifePeriod":"21.6分钟","Color":"","Chinese":"钫","Number":"87"}