{"EnglishName":"Radium","ElementSymbol":"Ra","AtomicNumber":"226.0","Number&Chinese":"88   镭","Period":"七","FamilyOrder":"II A","Summarize":"","ExtranuclearElectronConfiguration":"1s²2s²2p⁶3s²3p⁶3d¹⁰4s²4p⁶4d¹⁰4f¹⁴5s²5p⁶5d¹⁰6s²6p⁶7s²","Electron":"88","Uron":"88","Neutron":"138","Electronegativity":"0.9","Density":"","Valence":"","Area":"s区","MeltingPoint":"696.0℃","BoilingPoint":"1737.0℃","AtomicRadius":"215pm","CovalentRadius":"-","Conductivity":"导体","Magnetism":"-","PhysicalState":"固态","IonizationPotential":"-","Radioactivity":"有","HalfLifePeriod":"1584年","Color":"","Chinese":"镭","Number":"88"}