{"EnglishName":"Actinium","ElementSymbol":"Ac","AtomicNumber":"227.0","Number&Chinese":"89   锕","Period":"七","FamilyOrder":"III B","Summarize":"","ExtranuclearElectronConfiguration":"1s²2s²2p⁶3s²3p⁶3d¹⁰4s²4p⁶4d¹⁰4f¹⁴5s²5p⁶5d¹⁰6s²6p⁶6d¹7s²","Electron":"89","Uron":"89","Neutron":"138","Electronegativity":"1.1","Density":"","Valence":"","Area":"d区","MeltingPoint":"1050.0℃","BoilingPoint":"3197.0℃","AtomicRadius":"188pm","CovalentRadius":"-","Conductivity":"-","Magnetism":"-","PhysicalState":"固态","IonizationPotential":"-","Radioactivity":"有","HalfLifePeriod":"21.7年","Color":"","Chinese":"锕","Number":"89"}