{"EnglishName":"Fluorine","ElementSymbol":"F","AtomicNumber":"19.00","Number&Chinese":"9   氟","Period":"二","FamilyOrder":"VII A","Summarize":"氟是一种化学元素，符号为F，其原子序数为9，是最轻的卤素。其单质在标准状况下为浅黄色的双原子气体，有剧毒。作为电负性最强的元素，氟极度活泼，几乎与所有其它元素，包括某些惰性气体元素，都可以形成化合物。","ExtranuclearElectronConfiguration":"1s²2s²2p⁵","Electron":"9","Uron":"9","Neutron":"10","Electronegativity":"3.98","Density":"1.70×10⁻³","Valence":"-1","Area":"p区","MeltingPoint":"-219.67℃","BoilingPoint":"-188.11℃","AtomicRadius":"73pm","CovalentRadius":"71pm","Conductivity":"-","Magnetism":"-","PhysicalState":"气态","IonizationPotential":"18.6eV","Radioactivity":"无","HalfLifePeriod":"∞","Color":"6","Chinese":"氟","Number":"9"}