{"EnglishName":"Thorium","ElementSymbol":"Th","AtomicNumber":"232.0","Number&Chinese":"90   钍","Period":"七","FamilyOrder":"-","Summarize":"","ExtranuclearElectronConfiguration":"1s²2s²2p⁶3s²3p⁶3d¹⁰4s²4p⁶4d¹⁰4f¹⁴5s²5p⁶5d¹⁰6s²6p⁶6d²7s²","Electron":"90","Uron":"90","Neutron":"142","Electronegativity":"1.3","Density":"","Valence":"","Area":"f区","MeltingPoint":"1750.0℃","BoilingPoint":"4787.0℃","AtomicRadius":"180pm","CovalentRadius":"-","Conductivity":"导体","Magnetism":"-","PhysicalState":"固态","IonizationPotential":"-","Radioactivity":"有","HalfLifePeriod":"∞","Color":"","Chinese":"钍","Number":"90"}