{
  "EnglishName": "Protactinium",
  "ElementSymbol": "Pa",
  "AtomicNumber": "231.0",
  "Number&Chinese": "91   镤",
  "Period": "七",
  "FamilyOrder": "-",
  "ExtranuclearElectronConfiguration": "1s²2s²2p⁶3s²3p⁶3d¹⁰4s²4p⁶4d¹⁰4f¹⁴5s²5p⁶5d⁰6s²6p⁶6d²7s²",
  "Electron": "91",
  "Uron": "91",
  "Neutron": "140",
  "Electronegativity": "1.5",
  "Area": "d区",
  "MeltingPoint": "1572.0℃",
  "BoilingPoint": "4027.0℃",
  "AtomicRadius": "163pm",
  "CovalentRadius": "169pm",
  "Conductivity": "Metallic",
  "Magnetism": "Paramagnetic",
  "PhysicalState": "固态",
  "IonizationPotential": "5.89eV",
  "Radioactivity": "有",
  "HalfLifePeriod": "32,760年",
  "Chinese": "镤",
  "Number": "91"
}
