{
  "EnglishName": "Uranium",
  "ElementSymbol": "U",
  "AtomicNumber": "238.0",
  "Number&Chinese": "92   铀",
  "Period": "七",
  "FamilyOrder": "-",
  "ExtranuclearElectronConfiguration": "1s²2s²2p⁶3s²3p⁶3d¹⁰4s²4p⁶4d¹⁰5s²5p⁶4f¹⁴5d¹⁰6s²6p⁶7s²5f³",
  "Electron": "92",
  "Uron": "92",
  "Neutron": "146",
  "Electronegativity": "1.38",
  "Area": "f区",
  "MeltingPoint": "1132.0℃",
  "BoilingPoint": "4131℃",
  "AtomicRadius": "156pm",
  "CovalentRadius": "-",
  "Conductivity": "导电体",
  "Magnetism": "顺磁性",
  "PhysicalState": "固态",
  "IonizationPotential": "-",
  "Radioactivity": "放射性",
  "HalfLifePeriod": "4.5亿年",
  "Chinese": "铀",
  "Number": "92"
}
