{
  "EnglishName": "Neptunium",
  "ElementSymbol": "Np",
  "AtomicNumber": "237.0",
  "Number&Chinese": "93   镎",
  "Period": "七",
  "FamilyOrder": "-",
  "ExtranuclearElectronConfiguration": "1s²2s²2p⁶3s²3p⁶3d¹⁰4s²4p⁶4d¹⁰4f¹⁴5s²5p⁶5d¹⁰5f⁴6s²6p⁶7s²",
  "Electron": "93",
  "Uron": "93",
  "Neutron": "144",
  "Electronegativity": "1.36",
  "Area": "f区",
  "MeltingPoint": "640.0℃",
  "BoilingPoint": "3902℃",
  "AtomicRadius": "130pm",
  "CovalentRadius": "-",
  "Conductivity": "导体",
  "Magnetism": "-",
  "PhysicalState": "固态",
  "IonizationPotential": "-",
  "Radioactivity": "放射性",
  "HalfLifePeriod": "21.44万年",
  "Chinese": "镎",
  "Number": "93"
}
