{
  "EnglishName": "Plutonium",
  "ElementSymbol": "Pu",
  "AtomicNumber": "244.0",
  "Number&Chinese": "94   钚",
  "Period": "七",
  "FamilyOrder": "-",
  "ExtranuclearElectronConfiguration": "1s²2s²2p⁶3s²3p⁶3d¹⁰4s²4p⁶4d¹⁰4f¹⁴5s²5p⁶5d¹⁰5f⁶6s²6p⁶7s²",
  "Electron": "94",
  "Uron": "94",
  "Neutron": "150",
  "Electronegativity": "1.28",
  "Area": "f区",
  "MeltingPoint": "640.0℃",
  "BoilingPoint": "3228℃",
  "AtomicRadius": "159pm",
  "CovalentRadius": "-",
  "Conductivity": "导体",
  "Magnetism": "-",
  "PhysicalState": "固态",
  "IonizationPotential": "-",
  "Radioactivity": "放射性",
  "HalfLifePeriod": "80.8万年",
  "Chinese": "钚",
  "Number": "94"
}
