{
  "EnglishName": "Americium",
  "ElementSymbol": "Am",
  "AtomicNumber": "243.0",
  "Number&Chinese": "95   镅",
  "Period": "七",
  "FamilyOrder": "-",
  "ExtranuclearElectronConfiguration": "1s²2s²2p⁶3s²3p⁶3d¹⁰4s²4p⁶4d¹⁰4f¹⁴5s²5p⁶5f⁷5d¹⁰6s²6p⁶7s²",
  "Electron": "95",
  "Uron": "95",
  "Neutron": "148",
  "Electronegativity": "1.3",
  "Area": "f区",
  "MeltingPoint": "1176.0℃",
  "BoilingPoint": "2011℃",
  "AtomicRadius": "173pm",
  "CovalentRadius": "-",
  "Conductivity": "-",
  "Magnetism": "-",
  "PhysicalState": "固态",
  "IonizationPotential": "-",
  "Radioactivity": "放射性",
  "HalfLifePeriod": "7370年",
  "Chinese": "镅",
  "Number": "95"
}
