{
  "EnglishName": "Curium",
  "ElementSymbol": "Cm",
  "AtomicNumber": "247.0",
  "Number&Chinese": "96   锔",
  "Period": "七",
  "FamilyOrder": "-",
  "ExtranuclearElectronConfiguration": "1s²2s²2p⁶3s²3p⁶3d¹⁰4s²4p⁶4d¹⁰5s²5p⁶4f¹⁴5d¹⁰5f⁷6s²6p⁶6d¹7s²",
  "Electron": "96",
  "Uron": "96",
  "Neutron": "151",
  "Electronegativity": "1.3",
  "Area": "f区",
  "MeltingPoint": "1340.0℃",
  "BoilingPoint": "3110℃",
  "AtomicRadius": "299pm",
  "CovalentRadius": "-",
  "Conductivity": "-",
  "Magnetism": "-",
  "PhysicalState": "固态",
  "IonizationPotential": "-",
  "Radioactivity": "放射性",
  "HalfLifePeriod": "155905年",
  "Chinese": "锔",
  "Number": "96"
}
