{
  "EnglishName": "Berkelium",
  "ElementSymbol": "Bk",
  "AtomicNumber": "247.0",
  "Number&Chinese": "97   锫",
  "Period": "七",
  "FamilyOrder": "-",
  "ExtranuclearElectronConfiguration": "1s²2s²2p⁶3s²3p⁶3d¹⁰4s²4p⁶4d¹⁰5s²5p⁶5d¹⁰5f⁹6s²6p⁶6d¹⁰7s²",
  "Electron": "97",
  "Uron": "97",
  "Neutron": "150",
  "Electronegativity": "1.3",
  "Area": "f区",
  "MeltingPoint": "986.0℃",
  "BoilingPoint": "2627.0℃",
  "AtomicRadius": "297pm",
  "CovalentRadius": "-",
  "Conductivity": "-",
  "Magnetism": "-",
  "PhysicalState": "固态",
  "IonizationPotential": "-",
  "Radioactivity": "放射性",
  "HalfLifePeriod": "1378年",
  "Chinese": "锫",
  "Number": "97"
}
