{
  "EnglishName": "Californium",
  "ElementSymbol": "Cf",
  "AtomicNumber": "251.0",
  "Number&Chinese": "98   锎",
  "Period": "七",
  "FamilyOrder": "-",
  "ExtranuclearElectronConfiguration": "1s²2s²2p⁶3s²3p⁶3d¹⁰4s²4p⁶4d¹⁰5s²5p⁶5d¹⁰5f¹⁴6s²6p⁶6d¹⁰7s²",
  "Electron": "98",
  "Uron": "98",
  "Neutron": "153",
  "Electronegativity": "1.3",
  "Area": "f区",
  "MeltingPoint": "900.0℃",
  "BoilingPoint": "1472.0℃",
  "AtomicRadius": "295pm",
  "CovalentRadius": "-",
  "Conductivity": "-",
  "Magnetism": "-",
  "PhysicalState": "固态",
  "IonizationPotential": "-",
  "Radioactivity": "放射性",
  "HalfLifePeriod": "899.9年",
  "Chinese": "锎",
  "Number": "98"
}
