{
  "EnglishName": "Einsteinium",
  "ElementSymbol": "Es",
  "AtomicNumber": "252.0",
  "Number&Chinese": "99   锿",
  "Period": "七",
  "FamilyOrder": "-",
  "ExtranuclearElectronConfiguration": "1s²2s²2p⁶3s²3p⁶3d¹⁰4s²4p⁶4d¹⁰5s²5p⁶5d⁹6s²6p⁶6d¹⁰7s²",
  "Electron": "99",
  "Uron": "99",
  "Neutron": "153",
  "Electronegativity": "1.3",
  "Area": "f区",
  "MeltingPoint": "860.0℃",
  "BoilingPoint": "-",
  "AtomicRadius": "186pm",
  "CovalentRadius": "-",
  "Conductivity": "-",
  "Magnetism": "-",
  "PhysicalState": "固态",
  "IonizationPotential": "-",
  "Radioactivity": "放射性",
  "HalfLifePeriod": "1.2年",
  "Chinese": "锿",
  "Number": "99"
}
